# vtk DataFile Version 3.0
For visulization of ele data
ASCII
DATASET UNSTRUCTURED_GRID

POINTS	12195	double
-100000	100000	-100000
-100000	-100000	-100000
100000	-100000	-100000
100000	100000	-100000
-100000	100000	0
-100000	-100000	0
100000	-100000	0
100000	100000	0
-100000	100000	100000
-100000	-100000	100000
100000	-100000	100000
100000	100000	100000
-20000	20000	0
-20000	-20000	0
20000	-20000	0
20000	20000	0
-20000	20000	20000
-20000	-20000	20000
20000	-20000	20000
20000	20000	20000
-15000	-15000	0
-12500	-15000	0
-10000	-15000	0
-7500	-15000	0
-5000	-15000	0
-2500	-15000	0
0	-15000	0
2500	-15000	0
5000	-15000	0
7500	-15000	0
10000	-15000	0
12500	-15000	0
15000	-15000	0
-15000	-12500	0
-12500	-12500	0
-10000	-12500	0
-7500	-12500	0
-5000	-12500	0
-2500	-12500	0
0	-12500	0
2500	-12500	0
5000	-12500	0
7500	-12500	0
10000	-12500	0
12500	-12500	0
15000	-12500	0
-15000	-10000	0
-12500	-10000	0
-10000	-10000	0
-7500	-10000	0
-5000	-10000	0
-2500	-10000	0
0	-10000	0
2500	-10000	0
5000	-10000	0
7500	-10000	0
10000	-10000	0
12500	-10000	0
15000	-10000	0
-15000	-7500	0
-12500	-7500	0
-10000	-7500	0
-7500	-7500	0
-5000	-7500	0
-2500	-7500	0
0	-7500	0
2500	-7500	0
5000	-7500	0
7500	-7500	0
10000	-7500	0
12500	-7500	0
15000	-7500	0
-15000	-5000	0
-12500	-5000	0
-10000	-5000	0
-7500	-5000	0
-5000	-5000	0
-2500	-5000	0
0	-5000	0
2500	-5000	0
5000	-5000	0
7500	-5000	0
10000	-5000	0
12500	-5000	0
15000	-5000	0
-15000	-2500	0
-12500	-2500	0
-10000	-2500	0
-7500	-2500	0
-5000	-2500	0
-2500	-2500	0
0	-2500	0
2500	-2500	0
5000	-2500	0
7500	-2500	0
10000	-2500	0
12500	-2500	0
15000	-2500	0
-15000	0	0
-12500	0	0
-10000	0	0
-7500	0	0
-5000	0	0
-2500	0	0
0	0	0
2500	0	0
5000	0	0
7500	0	0
10000	0	0
12500	0	0
15000	0	0
-15000	2500	0
-12500	2500	0
-10000	2500	0
-7500	2500	0
-5000	2500	0
-2500	2500	0
0	2500	0
2500	2500	0
5000	2500	0
7500	2500	0
10000	2500	0
12500	2500	0
15000	2500	0
-15000	5000	0
-12500	5000	0
-10000	5000	0
-7500	5000	0
-5000	5000	0
-2500	5000	0
0	5000	0
2500	5000	0
5000	5000	0
7500	5000	0
10000	5000	0
12500	5000	0
15000	5000	0
-15000	7500	0
-12500	7500	0
-10000	7500	0
-7500	7500	0
-5000	7500	0
-2500	7500	0
0	7500	0
2500	7500	0
5000	7500	0
7500	7500	0
10000	7500	0
12500	7500	0
15000	7500	0
-15000	10000	0
-12500	10000	0
-10000	10000	0
-7500	10000	0
-5000	10000	0
-2500	10000	0
0	10000	0
2500	10000	0
5000	10000	0
7500	10000	0
10000	10000	0
12500	10000	0
15000	10000	0
-15000	12500	0
-12500	12500	0
-10000	12500	0
-7500	12500	0
-5000	12500	0
-2500	12500	0
0	12500	0
2500	12500	0
5000	12500	0
7500	12500	0
10000	12500	0
12500	12500	0
15000	12500	0
-15000	15000	0
-12500	15000	0
-10000	15000	0
-7500	15000	0
-5000	15000	0
-2500	15000	0
0	15000	0
2500	15000	0
5000	15000	0
7500	15000	0
10000	15000	0
12500	15000	0
15000	15000	0
-100000	0	0
0	-100000	0
100000	0	0
0	100000	0
-20000	0	0
0	-20000	0
20000	0	0
0	20000	0
-100000	0	100000
-100000	0	-100000
0	-100000	-100000
100000	0	-100000
0	100000	100000
-20000	-10000	0
-20000	0	20000
10000	-20000	0
0	-20000	20000
20000	10000	0
20000	0	20000
-10000	20000	0
0	20000	20000
0	-100000	100000
100000	0	100000
0	100000	-100000
-20000	10000	0
-10000	-20000	0
20000	-10000	0
10000	20000	0
-20000	-15000	0
-20000	-5000	0
15000	-20000	0
5000	-20000	0
20000	15000	0
20000	5000	0
-15000	20000	0
-5000	20000	0
5000	20000	0
20000	-5000	0
-5000	-20000	0
-20000	5000	0
-20000	15000	0
-15000	-20000	0
20000	-15000	0
15000	20000	0
0	0	-100000
0	0	100000
0	0	20000
-60937.5	-12500	0
-100000	50000	0
-100000	-100000	50000
-50000	-100000	100000
-50000	-100000	0
-17500	-61875	0
100000	100000	-50000
100000	50000	-100000
100000	50000	0
63750	25000	0
61875	-17500	0
100000	100000	50000
50000	100000	100000
50000	100000	0
17500	61875	0
-1250	-1250	-50000
-1250	-1250	-24968.8
-12500	-41161.4	-37654.3
43589.3	12500	-41369.2
7500	42056.9	-39592.9
-45277.9	7500	-38698
-13750	-17500	-20744.7
13750	11250	-20056.3
-6250	17500	-19868.6
11250	-17500	-20744.7
-10000	-20000	20000
-20000	-10000	20000
-20000	10000	20000
-10000	20000	20000
20000	-10000	20000
10000	-20000	20000
20000	10000	20000
10000	20000	20000
-70468.8	25000	0
-45277.9	7500	0
50000	-100000	0
17500	-55489.7	0
-50000	100000	0
-17500	55489.7	0
-1250	-11250	-14424.3
-11250	1250	-14549.5
46692.8	4461.17	0
17500	-1250	-14079.3
-25000	-100000	50000
-25000	-50000	100000
-50000	-6250	100000
-31640.6	50000	100000
25000	50000	100000
100000	-50000	100000
50000	-100000	100000
50000	6250	100000
100000	25000	50000
40862.9	-17500	0
25000	-100000	56250
25000	-56250	100000
8333.33	-8333.33	20000
-5000	-10000	20000
-5000	-20000	10625
5000	10000	20000
5000	20000	10625
-8333.33	8333.33	20000
10143.7	1465.52	20000
-10143.7	-1465.52	20000
-45281.8	-42521.5	0
-40697.8	-17500	0
-17500	-40862.9	0
17500	40862.9	0
3750	1250	-13047.6
-17500	-11250	-11464.5
8750	17500	-11430.5
-30616.1	17500	-21881.7
-17500	13750	-13276.6
17500	-13750	-11464.5
-100000	-37500	50000
-100000	25000	50000
3170.09	-40590.7	0
-17500	37656.8	0
41456.5	26162.2	0
-15000	-53522.7	53522.7
-27265.6	15000	65566.4
25000	100000	50000
28042.8	-21217.1	100000
100000	-25000	56250
53586.6	15000	53352.3
-3750	9918.29	-11498.7
-31250	100000	53125
5000	48390.8	57322.2
-58250	-15000	46864.8
-3750	3750	10625
-20000	2500	10000
1250	-6250	10937.5
20000	-5000	10625
17500	11250	-10184
-20000	-5000	13437.5
-20000	20000	10000
-5509.26	20000	10497.7
20000	-20000	10000
7500	-20000	10000
20000	20000	10000
20000	7500	10000
6250	-17500	-10245.2
-8750	-17500	-10245.2
14761.9	-5000	61190.5
-20000	-20000	10000
-11250	-11250	10606.6
6250	8750	10000
9756.04	-6250	-9999.55
32826.4	-38736.5	0
17500	-35130	0
-20000	11250	11250
10130.9	-1250	10144.9
-6250	-6250	-8837.01
-17500	3750	-8563.44
6250	8750	-8799.12
-669.922	46573.3	0
7500	32678.3	0
-8750	17500	-8996.22
-11250	-1250	8988.97
-11250	8750	8988.97
20000	-12595.1	12595.1
8750	-11033.9	8966.09
20000	13750	6875
12595.1	20000	12595.1
-35006.5	-3537.78	0
34708.3	-4111.79	0
13750	3750	-8315.89
51368.9	-15000	32309.6
1250	17500	-7834.02
15000	-51570.8	35002.7
-6250	2790.29	-8158.81
-25721.1	-15000	52051.6
-51143.2	15000	32606.2
1084.34	-20000	6999.25
34652.3	13038.1	0
-1250	12757.1	8533.93
-14082.8	-3750	-8107.49
-11250	9711.38	-8125.56
1250	-8750	-7537.12
-44858.1	34985.1	0
-34493.3	17500	0
-15000	49781.9	31828.3
-3750	-11250	7611.61
-1250	-17500	-7486.52
-7269.1	-32816.6	0
-20000	-7500	6718.75
-20000	-12732.3	12732.3
12954.5	6250	7471.59
17500	-6250	-7607.71
50000	-100000	-100000
100000	-50000	-100000
100000	-100000	-50000
3098.36	1250	7723.3
17500	30036.4	-11259.4
-12657.5	20000	7421.24
13750	-20000	6875
10112.2	20000	6541.78
-17500	-30247.9	-11359.8
1250	3750	-6883.05
-30688.4	-13438.9	0
13750	-17500	-6618.14
-5000	14761.9	47648.4
15000	48204.8	29009
-3750	-2613.66	7144.07
-12387.5	-20000	7612.5
-20000	-20000	5000
-31967.8	-32030	0
14045.7	-6250	6938.05
-11450.2	-11250	-7212.28
-17500	28651.4	-11157.6
5000	-27712.8	46988.4
13750	17500	-6467.06
-17500	13750	-6344.07
41970.9	-19583.7	-33090.1
31302.7	-26021	0
30693.1	-14066.3	0
-15000	-46215.8	26934.1
46979.5	15000	26043.6
7577.7	-30624.6	0
26817.5	15000	46347.3
8750	-12182	-6726.68
6250	-1250	-6708.22
20000	-12500	6049.8
6250	-5329.9	6552.75
-7550.93	13750	6559.13
-34768.7	6981.57	0
-20000	-13836.5	6488.47
20000	1084.34	6999.25
-20000	12500	5416.67
6250	14515.9	6572.41
-1250	-2440.44	-6565.54
13102.9	13750	6757.02
-50000	100000	-100000
-100000	100000	-50000
-44581.6	-15000	25198
-13750	-17500	-5961.42
-4213.53	13750	-6302.26
-20000	-2620.87	8727.75
-20000	2500	4687.5
-8382.51	3750	6212.21
3750	-13750	6114.31
29834.1	4447.33	0
-5110.43	34613	0
1250	7318.5	6272.69
-13828.5	-6250	6091.65
13750	-13699.6	6106.08
11250	11664.8	-6174.52
-17500	-11250	-5391.52
28697.4	-15000	42944.7
-11919.4	3750	-5989.19
30621.2	23453.9	0
-4136.84	-11250	-5955.11
-7141.62	-20000	5312.5
13750	-1806.51	-5891.45
-13750	-14287.8	5935.38
-21244.1	-30730.3	0
-13750	14029.5	6024
-50000	100000	-50000
-100000	50000	-100000
1250	11250	-5767.27
-32414	-857.985	12574.1
37263.1	-15000	17595.1
-27330.9	-2500	-8702.67
-8750	-1938.43	-5717.69
-28953.9	15000	41660.4
-206.472	20000	6586.13
-6250	8044.98	-5657.59
8750	2468.84	5770.97
21501.3	-29556.7	-15274.4
-32786.2	-22634.2	0
-100000	-50000	-100000
-100000	-100000	-50000
-100000	-50000	0
-42000.5	-28170.3	-27204.9
13750	-591.328	5645.13
3750	-14940.6	-5670.89
14634	-11250	-5875.27
-4543.81	8750	5739.66
-20000	7332.9	7343.75
-14299	3750	5758.18
8928.57	-20000	5044.64
1250	-8526.05	5586.01
-8032.37	-6250	5651.78
6250	14913.7	-5839.32
50000	100000	-100000
63762.8	63762.8	0
100000	50000	-50000
17500	8750	-5015.28
20000	8928.57	5044.64
17783.2	30315.6	0
8750	4659.87	-5609.96
6250	-6855.69	-5533.87
-6250	-17500	-4891.16
-1250	-31302.8	-19060.9
-8373.2	-6215.73	41523.4
38264.2	3580.56	-20629.4
26685.2	17500	-8650.93
-8220.46	-13750	5392.42
850.867	-33832.6	13525.4
-17500	-1250	-4677.53
-11250	14373.7	-5280.06
8750	8750	5127.95
-25823.3	-17500	-8705.74
8750	-17500	-4607.58
15000	35866.2	17595.1
5000	31186.5	37796
1250	-3140.57	5203.09
-15000	-28431.5	39134.2
-15728.1	8750	-5224.88
-1250	-15502.4	5204.26
-2633.82	3750	5227.78
-20000	-2500	4006.66
41080.9	51801.8	0
-33108	56441.4	-40146.2
-28115.9	12070.3	0
50000	-100000	-50000
100000	-50000	0
379.678	28332.9	0
754.178	34200.1	-17317.5
-5288.17	20000	5247.22
-15557.5	8750	5024.78
8750	-14788.3	5058.27
32344	14062.5	14062.5
-11250	-6250	-4741.37
-31172.2	36250.8	15000
-100000	100000	50000
-75000	100000	0
-100000	75000	0
-68361.3	57431.3	0
-17500	28651.4	0
20000	-4043.31	5312.5
20000	4594.32	4367.96
27241.9	-2696.3	0
-9543.98	27972	0
14925.3	-252.481	39782.4
17500	1250	-4269.02
-27144.2	-26938.8	7500
-48042.4	-6365.18	-19632.7
-100000	-25000	-50000
1250	15388.5	4938.45
14845.6	-27797	0
-14211.8	-1250	4860.95
-8321.58	-1250	4847.04
17500	13750	-4221.15
11250	-7571.41	-4930.4
-16725.6	-6250	-4589.92
-15000	30268.9	36495
-32620.4	-44895.6	16182.4
-100000	-100000	25000
-100000	-75000	0
-62500	-100000	37500
-66121.9	-69743.7	0
-100000	-62500	29687.5
-3750	-6250	-4595.32
-355.427	-28268.1	0
[...]
CELL_DATA	72652
SCALARS tet_marker int 1
LOOKUP_TABLE default
1
2
3
4
5
9999999
6
7
9999999
8
9
9999999
9999999
10
11
12
13
9999999
9999999
14
9999999
9999999
15
16
17
18
19
20
9999999
21
9999999
22
9999999
23
24
9999999
25
9999999
26
9999999
9999999
27
28
29
30
31
32
33
34
35
9999999
36
37
38
39
9999999
9999999
40
41
42
43
9999999
9999999
44
45
46
47
48
49
9999999
50
51
9999999
9999999
52
53
54
9999999
55
56
57
9999999
9999999
58
9999999
59
60
61
62
63
64
65
66
67
68
69
9999999
9999999
70
71
72
73
74
9999999
9999999
75
76
77
78
79
80
9999999
81
82
83
84
85
86
9999999
87
88
89
90
91
9999999
9999999
92
93
9999999
94
95
96
97
98
9999999
99
100
9999999
101
102
103
104
105
9999999
106
9999999
9999999
107
108
109
110
111
112
113
114
115
116
9999999
117
118
119
9999999
120
121
9999999
122
9999999
123
124
125
126
9999999
127
128
9999999
129
130
131
9999999
132
133
9999999
9999999
134
135
136
9999999
137
9999999
9999999
138
9999999
139
140
141
142
143
9999999
144
9999999
9999999
9999999
145
146
9999999
9999999
147
148
149
150
151
152
153
154
155
156
9999999
157
158
159
160
9999999
161
162
9999999
9999999
163
9999999
9999999
164
9999999
9999999
165
166
167
168
169
9999999
170
171
9999999
172
173
9999999
174
175
9999999
9999999
9999999
176
177
178
179
180
181
9999999
9999999
9999999
9999999
182
183
184
9999999
185
9999999
186
9999999
187
188
189
190
9999999
9999999
9999999
191
9999999
192
193
9999999
9999999
194
195
196
197
9999999
198
199
200
201
202
203
204
205
206
207
208
9999999
209
210
211
212
213
214
9999999
215
216
217
9999999
218
219
220
221
9999999
222
223
224
225
226
227
9999999
228
9999999
229
230
231
232
9999999
233
234
235
236
237
238
239
240
241
9999999
242
243
244
9999999
245
9999999
9999999
246
247
248
9999999
249
250
9999999
251
9999999
252
253
9999999
9999999
9999999
254
255
256
9999999
257
258
259
260
9999999
261
262
263
9999999
264
265
9999999
9999999
266
267
268
9999999
9999999
269
270
271
272
273
274
275
276
277
278
279
280
281
282
283
284
9999999
285
9999999
286
287
9999999
288
9999999
289
290
291
292
293
294
295
296
9999999
9999999
297
298
9999999
299
9999999
300
301
302
303
304
9999999
305
306
307
308
309
9999999
310
311
9999999
9999999
312
313
314
9999999
9999999
315
316
317
318
319
9999999
320
321
9999999
322
9999999
323
324
325
326
9999999
327
328
9999999
9999999
329
330
9999999
331
9999999
332
333
334
335
9999999
336
337
338
339
340
9999999
9999999
341
342
343
344
345
346
347
9999999
9999999
348
349
350
351
352
353
354
355
9999999
356
357
358
359
360
361
9999999
362
363
364
365
9999999
366
9999999
367
368
369
9999999
9999999
370
9999999
371
9999999
9999999
9999999
9999999
372
373
374
375
9999999
376
377
9999999
9999999
378
9999999
379
9999999
380
381
382
383
9999999
384
9999999
385
9999999
386
387
388
389
390
391
392
393
9999999
394
395
396
397
398
9999999
9999999
399
9999999
400
401
402
403
404
405
406
407
9999999
408
409
410
411
9999999
9999999
412
413
414
415
416
417
418
419
420
9999999
9999999
421
422
423
424
425
426
9999999
427
9999999
428
429
430
9999999
9999999
431
432
9999999
433
434
9999999
9999999
435
436
437
438
439
440
441
442
443
444
9999999
9999999
445
446
447
448
9999999
449
450
451
452
9999999
453
454
9999999
9999999
455
9999999
9999999
9999999
9999999
456
457
9999999
458
459
460
9999999
461
462
463
464
465
466
9999999
467
468
469
470
471
472
473
9999999
474
475
476
477
478
9999999
479
480
481
9999999
482
9999999
9999999
9999999
483
9999999
9999999
484
9999999
485
9999999
486
487
9999999
488
489
490
491
492
493
494
9999999
495
496
9999999
9999999
497
498
9999999
499
500
501
502
503
9999999
9999999
504
505
506
507
508
509
9999999
9999999
510
511
9999999
9999999
512
513
514
515
9999999
516
9999999
517
9999999
518
9999999
519
9999999
520
9999999
9999999
9999999
521
522
9999999
523
524
525
9999999
9999999
526
9999999
527
528
9999999
9999999
9999999
529
530
9999999
9999999
531
9999999
532
9999999
533
534
535
536
537
538
9999999
539
9999999
540
9999999
9999999
541
9999999
9999999
542
543
544
9999999
545
9999999
546
547
9999999
9999999
548
549
550
551
9999999
552
553
9999999
554
9999999
9999999
9999999
9999999
9999999
555
556
557
9999999
558
559
560
561
562
563
564
565
566
567
568
9999999
9999999
9999999
569
570
571
572
9999999
9999999
9999999
573
574
575
9999999
576
9999999
577
578
579
9999999
9999999
9999999
9999999
580
581
9999999
9999999
582
9999999
9999999
9999999
583
9999999
9999999
584
585
9999999
9999999
586
587
588
9999999
589
590
9999999
9999999
591
592
593
594
595
9999999
596
9999999
597
598
9999999
599
9999999
600
601
602
603
9999999
604
605
606
9999999
9999999
607
608
9999999
609
610
611
9999999
612
9999999
9999999
613
614
615
9999999
616
617
9999999
618
9999999
619
9999999
620
621
9999999
622
9999999
9999999
623
9999999
624
625
9999999
9999999
626
627
628
629
630
9999999
631
632
633
634
9999999
9999999
635
636
9999999
637
9999999
9999999
638
639
640
9999999
9999999
641
642
9999999
643
644
645
9999999
646
9999999
647
9999999
9999999
9999999
648
9999999
9999999
649
9999999
650
9999999
651
652
653
654
655
656
9999999
657
9999999
9999999
658
659
9999999
660
9999999
661
9999999
662
9999999
663
664
665
9999999
9999999
666
667
668
9999999
669
670
9999999
671
9999999
672
673
674
675
676
9999999
9999999
9999999
677
9999999
9999999
9999999
678
9999999
9999999
679
680
681
682
683
684
685
686
9999999
9999999
9999999
687
688
689
690
9999999
691
9999999
692
693
9999999
694
9999999
695
9999999
696
9999999
9999999
697
698
699
700
701
702
9999999
703
704
705
706
707
9999999
9999999
708
709
710
711
712
713
714
715
9999999
9999999
716
9999999
9999999
717
718
719
720
9999999
721
722
9999999
723
724
9999999
725
726
727
9999999
728
729
730
731
732
9999999
733
734
735
736
9999999
737
9999999
738
739
9999999
740
741
742
9999999
743
744
745
746
9999999
747
9999999
748
9999999
749
9999999
750
751
752
753
754
755
9999999
756
757
758
759
760
9999999
761
762
9999999
763
9999999
764
765
766
9999999
767
9999999
9999999
768
9999999
769
770
9999999
771
772
773
774
775
776
9999999
9999999
777
778
779
780
9999999
781
9999999
9999999
782
9999999
783
784
785
9999999
786
9999999
787
788
9999999
789
790
791
792
9999999
793
794
795
796
797
9999999
798
9999999
799
800
801
802
803
9999999
804
805
806
807
808
9999999
9999999
809
810
9999999
9999999
811
812
9999999
813
814
815
816
817
9999999
9999999
818
819
9999999
820
9999999
821
9999999
822
9999999
823
9999999
824
9999999
825
9999999
826
827
828
829
830
831
9999999
832
833
9999999
9999999
834
835
9999999
9999999
836
9999999
837
9999999
9999999
838
9999999
839
9999999
840
841
842
9999999
843
844
9999999
845
9999999
846
847
848
849
850
851
852
853
9999999
854
855
9999999
856
857
858
859
860
9999999
861
9999999
862
9999999
863
864
9999999
865
866
867
9999999
9999999
868
869
870
9999999
9999999
871
9999999
9999999
9999999
872
873
9999999
9999999
9999999
9999999
874
9999999
9999999
9999999
875
876
877
9999999
878
879
880
881
882
883
9999999
9999999
884
885
886
887
9999999
9999999
9999999
888
9999999
9999999
9999999
889
9999999
890
9999999
891
9999999
9999999
9999999
9999999
892
893
894
895
896
897
898
9999999
899
900
901
902
903
9999999
904
905
906
9999999
907
908
9999999
909
910
911
912
913
914
915
916
917
918
9999999
919
920
9999999
9999999
921
922
9999999
923
924
925
926
927
928
929
9999999
9999999
9999999
930
931
932
9999999
9999999
933
934
9999999
9999999
935
9999999
936
937
938
939
940
941
942
943
9999999
944
945
946
947
948
949
950
951
952
953
954
955
9999999
956
957
958
959
9999999
960
9999999
961
962
963
9999999
9999999
9999999
964
965
966
9999999
9999999
967
968
969
970
971
972
973
974
975
976
9999999
9999999
977
978
979
980
981
982
983
984
985
986
9999999
987
988
989
9999999
990
991
9999999
9999999
992
993
994
995
996
997
998
999
1000
9999999
9999999
1001
1002
9999999
1003
1004
1005
1006
9999999
1007
9999999
1008
9999999
1009
1010
1011
1012
1013
1014
1015
9999999
9999999
1016
1017
9999999
1018
9999999
1019
1020
1021
1022
1023
1024
9999999
1025
1026
1027
9999999
1028
1029
1030
1031
9999999
1032
1033
1034
9999999
9999999
1035
1036
1037
1038
9999999
1039
1040
1041
1042
1043
1044
9999999
9999999
9999999
1045
9999999
1046
1047
9999999
9999999
1048
9999999
9999999
1049
1050
1051
1052
9999999
1053
1054
9999999
9999999
1055
1056
1057
9999999
1058
1059
1060
1061
1062
1063
1064
1065
1066
1067
1068
1069
1070
1071
1072
9999999
1073
1074
1075
1076
9999999
1077
9999999
1078
9999999
9999999
1079
1080
9999999
9999999
1081
1082
1083
1084
9999999
1085
1086
1087
1088
1089
1090
1091
1092
1093
1094
1095
1096
1097
1098
9999999
9999999
9999999
1099
1100
1101
9999999
1102
9999999
1103
1104
1105
1106
9999999
1107
1108
1109
1110
9999999
1111
1112
1113
9999999
1114
1115
1116
1117
1118
1119
9999999
1120
9999999
9999999
9999999
1121
9999999
1122
9999999
1123
1124
1125
9999999
1126
9999999
1127
1128
1129
9999999
1130
1131
9999999
1132
9999999
1133
9999999
9999999
1134
1135
9999999
1136
1137
9999999
1138
1139
9999999
1140
1141
1142
1143
1144
1145
1146
9999999
9999999
9999999
1147
1148
1149
9999999
1150
1151
1152
1153
1154
9999999
1155
9999999
1156
1157
1158
9999999
9999999
1159
1160
1161
9999999
1162
9999999
9999999
1163
9999999
1164
9999999
1165
1166
1167
1168
9999999
9999999
9999999
9999999
1169
1170
9999999
1171
1172
1173
1174
1175
1176
1177
1178
9999999
1179
9999999
1180
9999999
1181
1182
1183
9999999
9999999
1184
1185
1186
9999999
1187
1188
1189
1190
1191
9999999
1192
1193
1194
1195
9999999
1196
1197
1198
1199
9999999
1200
1201
1202
1203
1204
1205
9999999
1206
9999999
9999999
1207
9999999
1208
1209
1210
1211
1212
1213
1214
1215
1216
1217
1218
9999999
1219
1220
1221
1222
1223
9999999
9999999
1224
1225
1226
1227
9999999
9999999
1228
1229
1230
1231
1232
1233
1234
9999999
1235
9999999
1236
9999999
9999999
9999999
9999999
1237
1238
1239
1240
9999999
9999999
1241
1242
1243
1244
1245
1246
9999999
1247
9999999
1248
9999999
1249
1250
1251
1252
1253
9999999
9999999
1254
9999999
1255
1256
1257
9999999
1258
9999999
9999999
9999999
1259
1260
1261
1262
1263
9999999
1264
1265
1266
1267
1268
1269
9999999
9999999
1270
9999999
1271
9999999
1272
1273
1274
9999999
1275
1276
9999999
1277
9999999
9999999
1278
1279
1280
1281
1282
9999999
1283
9999999
1284
1285
1286
1287
1288
9999999
1289
9999999
1290
1291
9999999
9999999
1292
9999999
9999999
1293
9999999
1294
9999999
1295
9999999
1296
1297
1298
1299
9999999
1300
9999999
9999999
9999999
1301
9999999
9999999
1302
9999999
9999999
1303
1304
1305
9999999
9999999
1306
9999999
9999999
1307
9999999
1308
1309
9999999
1310
1311
1312
9999999
1313
1314
9999999
1315
1316
9999999
1317
1318
9999999
1319
9999999
1320
9999999
1321
9999999
9999999
1322
1323
9999999
1324
1325
1326
1327
9999999
1328
9999999
1329
1330
1331
1332
9999999
9999999
1333
9999999
1334
1335
1336
1337
1338
1339
1340
9999999
1341
1342
1343
9999999
1344
1345
1346
1347
1348
1349
9999999
9999999
1350
1351
9999999
9999999
1352
1353
1354
1355
1356
1357
9999999
1358
1359
1360
1361
1362
9999999
9999999
1363
9999999
1364
9999999
1365
1366
9999999
9999999
9999999
1367
1368
1369
9999999
1370
1371
1372
1373
1374
1375
9999999
1376
1377
1378
1379
1380
1381
1382
9999999
1383
1384
1385
1386
9999999
1387
1388
9999999
1389
1390
1391
9999999
1392
1393
1394
1395
9999999
9999999
9999999
1396
9999999
1397
1398
1399
1400
1401
1402
1403
1404
1405
9999999
1406
9999999
1407
9999999
9999999
1408
1409
1410
1411
1412
1413
1414
9999999
9999999
1415
1416
1417
1418
1419
1420
1421
1422
1423
1424
1425
1426
1427
1428
1429
1430
1431
1432
1433
1434
9999999
1435
1436
1437
1438
1439
9999999
1440
1441
1442
9999999
1443
1444
1445
1446
1447
1448
1449
1450
9999999
1451
9999999
9999999
1452
1453
9999999
1454
1455
9999999
1456
1457
1458
1459
1460
1461
1462
1463
1464
1465
9999999
1466
1467
9999999
1468
1469
1470
1471
1472
1473
1474
1475
1476
1477
1478
1479
1480
1481
1482
1483
1484
1485
9999999
1486
1487
1488
1489
1490
9999999
1491
1492
9999999
1493
1494
1495
9999999
1496
9999999
1497
9999999
1498
1499
1500
1501
9999999
9999999
9999999
1502
1503
9999999
1504
1505
1506
9999999
1507
9999999
1508
1509
1510
1511
9999999
1512
9999999
1513
1514
1515
1516
1517
9999999
9999999
9999999
9999999
9999999
1518
1519
9999999
9999999
9999999
1520
9999999
9999999
1521
1522
9999999
9999999
1523
1524
1525
1526
9999999
9999999
1527
1528
9999999
9999999
9999999
1529
1530
1531
1532
1533
1534
1535
1536
1537
1538
1539
1540
1541
1542
1543
9999999
9999999
1544
9999999
1545
1546
1547
1548
9999999
1549
1550
1551
9999999
1552
9999999
1553
9999999
1554
9999999
1555
1556
1557
1558
9999999
1559
1560
1561
1562
1563
1564
9999999
1565
1566
1567
9999999
9999999
1568
1569
1570
9999999
1571
1572
1573
9999999
1574
1575
1576
9999999
1577
9999999
9999999
1578
1579
1580
1581
1582
1583
1584
1585
1586
1587
1588
1589
9999999
1590
1591
1592
1593
1594
1595
1596
1597
9999999
1598
1599
9999999
1600
1601
9999999
1602
9999999
1603
1604
1605
1606
1607
1608
1609
1610
1611
1612
1613
1614
1615
1616
9999999
1617
9999999
9999999
1618
1619
9999999
9999999
9999999
1620
1621
1622
9999999
1623
9999999
1624
1625
1626
1627
1628
9999999
1629
9999999
1630
1631
1632
1633
1634
1635
1636
1637
1638
1639
1640
9999999
1641
9999999
1642
1643
9999999
1644
1645
1646
1647
9999999
1648
9999999
9999999
1649
1650
1651
1652
1653
9999999
1654
1655
1656
9999999
1657
1658
1659
1660
1661
1662
1663
1664
1665
1666
9999999
1667
1668
1669
1670
9999999
9999999
1671
1672
1673
1674
9999999
9999999
1675
1676
1677
9999999
9999999
9999999
1678
1679
1680
1681
1682
1683
9999999
1684
1685
1686
9999999
1687
1688
9999999
1689
1690
1691
1692
9999999
9999999
1693
1694
9999999
1695
9999999
1696
1697
1698
1699
1700
1701
9999999
9999999
9999999
1702
1703
9999999
1704
9999999
9999999
1705
1706
9999999
9999999
1707
1708
1709
1710
1711
9999999
9999999
1712
1713
9999999
9999999
9999999
1714
9999999
1715
1716
9999999
9999999
1717
1718
1719
9999999
1720
1721
1722
9999999
9999999
9999999
9999999
1723
1724
1725
9999999
1726
9999999
1727
1728
1729
1730
1731
1732
9999999
9999999
1733
1734
1735
9999999
1736
1737
1738
1739
9999999
1740
9999999
1741
9999999
1742
1743
1744
1745
1746
1747
1748
1749
1750
1751
9999999
1752
1753
9999999
1754
1755
1756
1757
1758
1759
9999999
1760
1761
9999999
1762
1763
1764
9999999
9999999
1765
1766
9999999
1767
1768
1769
1770
1771
1772
1773
1774
9999999
1775
1776
1777
9999999
1778
1779
1780
1781
1782
1783
1784
9999999
9999999
1785
9999999
1786
1787
1788
1789
9999999
1790
9999999
1791
1792
1793
1794
1795
1796
9999999
1797
1798
1799
9999999
1800
1801
1802
1803
1804
1805
1806
1807
1808
1809
9999999
1810
9999999
1811
9999999
1812
9999999
9999999
9999999
9999999
9999999
1813
9999999
9999999
9999999
9999999
1814
1815
1816
1817
1818
1819
1820
1821
1822
9999999
9999999
1823
1824
1825
9999999
1826
1827
1828
1829
9999999
1830
1831
1832
1833
1834
1835
1836
9999999
1837
1838
1839
1840
1841
9999999
1842
9999999
9999999
1843
9999999
1844
9999999
1845
1846
1847
9999999
1848
1849
1850
1851
9999999
1852
9999999
1853
1854
9999999
1855
1856
1857
1858
1859
1860
1861
1862
1863
1864
1865
1866
9999999
1867
1868
1869
1870
1871
1872
1873
9999999
1874
1875
1876
1877
1878
1879
1880
1881
1882
1883
1884
1885
1886
1887
9999999
9999999
1888
1889
9999999
9999999
1890
1891
1892
9999999
1893
1894
1895
9999999
1896
9999999
1897
1898
9999999
1899
1900
1901
1902
1903
1904
9999999
9999999
1905
9999999
1906
1907
1908
9999999
1909
1910
1911
1912
9999999
1913
9999999
1914
1915
1916
1917
9999999
1918
1919
1920
9999999
1921
1922
1923
1924
1925
1926
1927
1928
1929
1930
1931
1932
9999999
9999999
1933
9999999
1934
1935
9999999
9999999
1936
1937
9999999
1938
9999999
9999999
1939
9999999
1940
1941
1942
1943
1944
1945
1946
9999999
1947
1948
1949
1950
1951
1952
1953
1954
1955
1956
1957
1958
9999999
1959
1960
1961
1962
1963
1964
1965
1966
1967
1968
9999999
9999999
1969
1970
9999999
1971
1972
1973
1974
9999999
1975
1976
1977
1978
9999999
1979
1980
9999999
9999999
1981
1982
9999999
1983
9999999
1984
1985
9999999
9999999
1986
1987
1988
1989
1990
9999999
9999999
1991
1992
9999999
9999999
1993
1994
9999999
1995
1996
9999999
1997
1998
9999999
1999
9999999
2000
2001
2002
2003
2004
2005
2006
2007
9999999
9999999
2008
9999999
2009
2010
2011
9999999
2012
2013
2014
2015
2016
9999999
2017
2018
2019
2020
9999999
2021
2022
2023
2024
2025
2026
2027
2028
2029
2030
9999999
2031
9999999
9999999
9999999
2032
2033
2034
2035
2036
2037
2038
2039
2040
2041
9999999
2042
2043
9999999
2044
9999999
9999999
9999999
2045
2046
2047
2048
2049
2050
9999999
2051
2052
2053
2054
2055
2056
2057
2058
9999999
9999999
2059
9999999
2060
2061
2062
2063
2064
2065
9999999
2066
2067
2068
9999999
9999999
2069
2070
2071
9999999
2072
9999999
9999999
9999999
2073
9999999
2074
9999999
2075
2076
2077
2078
2079
2080
2081
2082
2083
2084
9999999
2085
2086
9999999
2087
2088
9999999
9999999
9999999
2089
2090
9999999
2091
2092
2093
9999999
2094
9999999
2095
9999999
2096
2097
2098
9999999
2099
2100
2101
2102
2103
2104
9999999
2105
9999999
2106
2107
2108
2109
2110
9999999
2111
9999999
2112
2113
9999999
2114
2115
9999999
2116
9999999
2117
2118
2119
9999999
2120
9999999
2121
9999999
9999999
2122
9999999
2123
2124
2125
2126
2127
2128
2129
2130
2131
9999999
9999999
2132
9999999
2133
2134
2135
2136
2137
2138
2139
9999999
2140
2141
9999999
9999999
2142
2143
2144
2145
2146
2147
2148
2149
2150
2151
2152
2153
9999999
2154
2155
2156
2157
2158
9999999
2159
9999999
2160
2161
2162
2163
2164
2165
2166
2167
2168
9999999
2169
2170
2171
9999999
2172
9999999
2173
2174
9999999
2175
2176
2177
2178
2179
9999999
2180
9999999
2181
2182
2183
2184
2185
2186
2187
2188
2189
2190
2191
2192
9999999
2193
2194
9999999
2195
2196
2197
9999999
2198
2199
2200
9999999
2201
2202
9999999
2203
2204
9999999
2205
2206
2207
2208
9999999
9999999
2209
2210
9999999
9999999
2211
2212
2213
2214
9999999
2215
2216
2217
2218
2219
9999999
2220
2221
2222
2223
2224
2225
9999999
2226
2227
2228
2229
2230
2231
9999999
9999999
9999999
9999999
9999999
2232
2233
2234
2235
9999999
2236
9999999
2237
2238
2239
2240
2241
9999999
9999999
9999999
9999999
2242
2243
2244
2245
2246
2247
9999999
2248
9999999
9999999
9999999
2249
2250
2251
2252
9999999
2253
2254
2255
9999999
2256
2257
2258
2259
2260
2261
2262
2263
9999999
2264
2265
9999999
9999999
2266
9999999
9999999
2267
2268
2269
2270
2271
9999999
2272
2273
2274
9999999
2275
9999999
2276
2277
2278
2279
2280
2281
2282
2283
2284
2285
9999999
9999999
2286
2287
2288
2289
2290
2291
2292
2293
2294
2295
2296
2297
2298
2299
9999999
2300
2301
2302
2303
2304
2305
2306
2307
2308
9999999
2309
9999999
9999999
2310
2311
2312
2313
2314
2315
9999999
2316
9999999
9999999
2317
9999999
9999999
9999999
2318
2319
9999999
2320
2321
9999999
2322
2323
2324
2325
9999999
2326
2327
2328
2329
2330
9999999
2331
2332
2333
2334
2335
2336
2337
9999999
2338
9999999
9999999
2339
9999999
2340
2341
2342
2343
9999999
9999999
2344
9999999
2345
2346
9999999
2347
2348
2349
2350
2351
2352
2353
9999999
2354
2355
2356
9999999
2357
2358
2359
2360
2361
9999999
9999999
2362
2363
9999999
2364
9999999
9999999
2365
2366
2367
2368
9999999
9999999
2369
2370
2371
2372
9999999
2373
2374
2375
2376
2377
2378
2379
2380
2381
9999999
2382
2383
2384
2385
2386
2387
2388
2389
2390
9999999
2391
2392
2393
2394
2395
2396
2397
9999999
2398
2399
2400
2401
2402
2403
2404
2405
2406
2407
2408
2409
2410
2411
9999999
9999999
9999999
9999999
2412
2413
2414
9999999
2415
2416
9999999
9999999
2417
2418
9999999
2419
2420
9999999
2421
2422
2423
2424
2425
2426
2427
9999999
2428
2429
9999999
2430
9999999
9999999
2431
2432
2433
2434
2435
9999999
9999999
9999999
2436
2437
2438
2439
2440
2441
2442
2443
2444
2445
2446
2447
2448
2449
2450
2451
2452
2453
2454
9999999
2455
2456
2457
2458
2459
2460
2461
9999999
2462
9999999
2463
2464
2465
2466
2467
2468
2469
2470
2471
9999999
2472
2473
2474
9999999
9999999
2475
2476
2477
2478
2479
2480
2481
2482
2483
9999999
2484
2485
9999999
2486
2487
2488
9999999
2489
9999999
2490
2491
2492
9999999
9999999
2493
9999999
9999999
9999999
2494
2495
2496
9999999
2497
2498
2499
2500
2501
9999999
9999999
2502
9999999
2503
2504
2505
9999999
2506
2507
2508
2509
2510
2511
2512
9999999
9999999
9999999
9999999
2513