# vtk DataFile Version 3.0
For visulization of ele data
ASCII
DATASET UNSTRUCTURED_GRID

POINTS	9124	double
-12000	-21000	-0
-12000	-15000	-0
-12000	-9000	-0
-12000	-3000	-0
-12000	3000	-0
-12000	9000	-0
-12000	15000	-0
-12000	21000	-0
-6000	-21000	-0
-6000	-15000	1246.88
-6000	-9000	1741.65
-6000	-3000	800.547
-6000	3000	-800.547
-6000	9000	-1741.65
-6000	15000	-1246.88
-6000	21000	-0
0	-21000	-0
0	-15000	2121.32
0	-9000	2963.07
0	-3000	1361.97
0	3000	-1361.97
0	9000	-2963.07
0	15000	-2121.32
0	21000	-0
6000	-21000	-0
6000	-15000	1246.88
6000	-9000	1741.65
6000	-3000	800.547
6000	3000	-800.547
6000	9000	-1741.65
6000	15000	-1246.88
6000	21000	-0
12000	-21000	-0
12000	-15000	-0
12000	-9000	-0
12000	-3000	-0
12000	3000	-0
12000	9000	-0
12000	15000	-0
12000	21000	-0
12500	-22500	-0
-12500	-22500	-0
-12500	22500	-0
12500	22500	-0
20000	-30000	-0
-20000	-30000	-0
-20000	30000	-0
20000	30000	-0
150000	-150000	-0
-150000	-150000	-0
-150000	150000	-0
150000	150000	-0
-10000	0	-0
-9500	0	-0
-9000	0	-0
-8500	0	-0
-8000	0	-0
-7500	0	-0
-7000	0	-0
-6500	0	-0
-6000	0	-0
-5500	0	-0
-5000	0	-0
-4500	0	-0
-4000	0	-0
-3500	0	-0
-3000	0	-0
-2500	0	-0
-2000	0	-0
-1500	0	-0
-1000	0	-0
-500	0	-0
0	0	-0
500	0	-0
1000	0	-0
1500	0	-0
2000	0	-0
2500	0	-0
3000	0	-0
3500	0	-0
4000	0	-0
4500	0	-0
5000	0	-0
5500	0	-0
6000	0	-0
6500	0	-0
7000	0	-0
7500	0	-0
8000	0	-0
8500	0	-0
9000	0	-0
9500	0	-0
10000	0	-0
-10000	500	-0
-9500	500	-18.4675
-9000	500	-36.8211
-8500	500	-54.9477
-8000	500	-72.7356
-7500	500	-90.075
-7000	500	-106.859
-6500	500	-122.984
-6000	500	-138.351
-5500	500	-152.865
-5000	500	-166.437
-4500	500	-178.982
-4000	500	-190.424
-3500	500	-200.692
-3000	500	-209.723
-2500	500	-217.46
-2000	500	-223.857
-1500	500	-228.874
-1000	500	-232.479
-500	500	-234.652
0	500	-235.377
500	500	-234.652
1000	500	-232.479
1500	500	-228.874
2000	500	-223.857
2500	500	-217.46
3000	500	-209.723
3500	500	-200.692
4000	500	-190.424
4500	500	-178.982
5000	500	-166.437
5500	500	-152.865
6000	500	-138.351
6500	500	-122.984
7000	500	-106.859
7500	500	-90.075
8000	500	-72.7356
8500	500	-54.9477
9000	500	-36.8211
9500	500	-18.4675
10000	500	-0
-10000	1000	-0
-9500	1000	-36.8211
-9000	1000	-73.4152
-8500	1000	-109.557
-8000	1000	-145.023
-7500	1000	-179.595
-7000	1000	-213.059
-6500	1000	-245.21
-6000	1000	-275.85
-5500	1000	-304.788
-5000	1000	-331.848
-4500	1000	-356.861
-4000	1000	-379.674
-3500	1000	-400.147
-3000	1000	-418.152
-2500	1000	-433.58
-2000	1000	-446.334
-1500	1000	-456.337
-1000	1000	-463.526
-500	1000	-467.857
0	1000	-469.303
500	1000	-467.857
1000	1000	-463.526
1500	1000	-456.337
2000	1000	-446.334
2500	1000	-433.58
3000	1000	-418.152
3500	1000	-400.147
4000	1000	-379.674
4500	1000	-356.861
5000	1000	-331.848
5500	1000	-304.788
6000	1000	-275.85
6500	1000	-245.21
7000	1000	-213.059
7500	1000	-179.595
8000	1000	-145.023
8500	1000	-109.557
9000	1000	-73.4152
9500	1000	-36.8211
10000	1000	-0
-10000	1500	-0
-9500	1500	-54.9477
-9000	1500	-109.557
-8500	1500	-163.49
-8000	1500	-216.416
-7500	1500	-268.007
-7000	1500	-317.946
-6500	1500	-365.925
-6000	1500	-411.647
-5500	1500	-454.832
-5000	1500	-495.212
-4500	1500	-532.54
-4000	1500	-566.584
-3500	1500	-597.135
-3000	1500	-624.004
-2500	1500	-647.026
-2000	1500	-666.059
-1500	1500	-680.986
-1000	1500	-691.714
-500	1500	-698.177
0	1500	-700.336
500	1500	-698.177
1000	1500	-691.714
1500	1500	-680.986
2000	1500	-666.059
2500	1500	-647.026
3000	1500	-624.004
3500	1500	-597.135
4000	1500	-566.584
4500	1500	-532.54
5000	1500	-495.212
5500	1500	-454.832
6000	1500	-411.647
6500	1500	-365.925
7000	1500	-317.946
7500	1500	-268.007
8000	1500	-216.416
8500	1500	-163.49
9000	1500	-109.557
9500	1500	-54.9477
10000	1500	-0
-10000	2000	-0
-9500	2000	-72.7356
-9000	2000	-145.023
-8500	2000	-216.416
-8000	2000	-286.474
-7500	2000	-354.767
-7000	2000	-420.872
-6500	2000	-484.383
-6000	2000	-544.907
-5500	2000	-602.072
-5000	2000	-655.524
-4500	2000	-704.935
-4000	2000	-750
-3500	2000	-790.441
-3000	2000	-826.009
-2500	2000	-856.483
-2000	2000	-881.678
-1500	2000	-901.437
-1000	2000	-915.637
-500	2000	-924.193
0	2000	-927.051
500	2000	-924.193
1000	2000	-915.637
1500	2000	-901.437
2000	2000	-881.678
2500	2000	-856.483
3000	2000	-826.009
3500	2000	-790.441
4000	2000	-750
4500	2000	-704.935
5000	2000	-655.524
5500	2000	-602.072
6000	2000	-544.907
6500	2000	-484.383
7000	2000	-420.872
7500	2000	-354.767
8000	2000	-286.474
8500	2000	-216.416
9000	2000	-145.023
9500	2000	-72.7356
10000	2000	-0
-10000	2500	-0
-9500	2500	-90.075
-9000	2500	-179.595
-8500	2500	-268.007
-8000	2500	-354.767
-7500	2500	-439.34
-7000	2500	-521.204
-6500	2500	-599.855
-6000	2500	-674.807
-5500	2500	-745.599
-5000	2500	-811.794
-4500	2500	-872.984
-4000	2500	-928.792
-3500	2500	-978.874
-3000	2500	-1022.92
-2500	2500	-1060.66
-2000	2500	-1091.86
-1500	2500	-1116.33
-1000	2500	-1133.92
-500	2500	-1144.51
0	2500	-1148.05
500	2500	-1144.51
1000	2500	-1133.92
1500	2500	-1116.33
2000	2500	-1091.86
2500	2500	-1060.66
3000	2500	-1022.92
3500	2500	-978.874
4000	2500	-928.792
4500	2500	-872.984
5000	2500	-811.794
5500	2500	-745.599
6000	2500	-674.807
6500	2500	-599.855
7000	2500	-521.204
7500	2500	-439.34
8000	2500	-354.767
8500	2500	-268.007
9000	2500	-179.595
9500	2500	-90.075
10000	2500	-0
-10000	3000	-0
-9500	3000	-106.859
-9000	3000	-213.059
-8500	3000	-317.946
-8000	3000	-420.872
-7500	3000	-521.204
-7000	3000	-618.322
-6500	3000	-711.628
-5500	3000	-884.53
-5000	3000	-963.059
-4500	3000	-1035.65
-4000	3000	-1101.86
-3500	3000	-1161.27
-3000	3000	-1213.53
-2500	3000	-1258.3
-2000	3000	-1295.31
-1500	3000	-1324.34
-1000	3000	-1345.2
-500	3000	-1357.77
500	3000	-1357.77
1000	3000	-1345.2
1500	3000	-1324.34
2000	3000	-1295.31
2500	3000	-1258.3
3000	3000	-1213.53
3500	3000	-1161.27
4000	3000	-1101.86
4500	3000	-1035.65
5000	3000	-963.059
5500	3000	-884.53
6500	3000	-711.628
7000	3000	-618.322
7500	3000	-521.204
8000	3000	-420.872
8500	3000	-317.946
9000	3000	-213.059
9500	3000	-106.859
10000	3000	-0
-10000	3500	-0
-9500	3500	-122.984
-9000	3500	-245.21
-8500	3500	-365.925
-8000	3500	-484.383
-7500	3500	-599.855
-7000	3500	-711.628
-6500	3500	-819.014
-6000	3500	-921.351
-5500	3500	-1018.01
-5000	3500	-1108.39
-4500	3500	-1191.93
-4000	3500	-1268.13
-3500	3500	-1336.51
-3000	3500	-1396.65
-2500	3500	-1448.18
-2000	3500	-1490.78
-1500	3500	-1524.19
-1000	3500	-1548.2
-500	3500	-1562.66
0	3500	-1567.5
500	3500	-1562.66
1000	3500	-1548.2
1500	3500	-1524.19
2000	3500	-1490.78
2500	3500	-1448.18
3000	3500	-1396.65
3500	3500	-1336.51
4000	3500	-1268.13
4500	3500	-1191.93
5000	3500	-1108.39
5500	3500	-1018.01
6000	3500	-921.351
6500	3500	-819.014
7000	3500	-711.628
7500	3500	-599.855
8000	3500	-484.383
8500	3500	-365.925
9000	3500	-245.21
9500	3500	-122.984
10000	3500	-0
-10000	4000	-0
-9500	4000	-138.351
-9000	4000	-275.85
-8500	4000	-411.647
-8000	4000	-544.907
-7500	4000	-674.807
-7000	4000	-800.547
-6500	4000	-921.351
-6000	4000	-1036.47
-5500	4000	-1145.21
-5000	4000	-1246.88
-4500	4000	-1340.87
-4000	4000	-1426.58
-3500	4000	-1503.51
-3000	4000	-1571.16
-2500	4000	-1629.13
-2000	4000	-1677.05
-1500	4000	-1714.63
-1000	4000	-1741.65
-500	4000	-1757.92
0	4000	-1763.36
500	4000	-1757.92
1000	4000	-1741.65
1500	4000	-1714.63
2000	4000	-1677.05
2500	4000	-1629.13
3000	4000	-1571.16
3500	4000	-1503.51
4000	4000	-1426.58
4500	4000	-1340.87
5000	4000	-1246.88
5500	4000	-1145.21
6000	4000	-1036.47
6500	4000	-921.351
7000	4000	-800.547
7500	4000	-674.807
8000	4000	-544.907
8500	4000	-411.647
9000	4000	-275.85
9500	4000	-138.351
10000	4000	-0
-10000	4500	-0
-9500	4500	-152.865
-9000	4500	-304.788
-8500	4500	-454.832
-8000	4500	-602.072
-7500	4500	-745.599
-7000	4500	-884.53
-6500	4500	-1018.01
-6000	4500	-1145.21
-5500	4500	-1265.35
-5000	4500	-1377.69
-4500	4500	-1481.53
-4000	4500	-1576.24
-3500	4500	-1661.24
-3000	4500	-1735.99
-2500	4500	-1800.04
-2000	4500	-1852.99
-1500	4500	-1894.51
-1000	4500	-1924.36
-500	4500	-1942.34
0	4500	-1948.34
500	4500	-1942.34
1000	4500	-1924.36
1500	4500	-1894.51
2000	4500	-1852.99
2500	4500	-1800.04
3000	4500	-1735.99
3500	4500	-1661.24
4000	4500	-1576.24
4500	4500	-1481.53
5000	4500	-1377.69
5500	4500	-1265.35
6000	4500	-1145.21
6500	4500	-1018.01
7000	4500	-884.53
7500	4500	-745.599
8000	4500	-602.072
8500	4500	-454.832
9000	4500	-304.788
9500	4500	-152.865
10000	4500	-0
-10000	5000	-0
-9500	5000	-166.437
-9000	5000	-331.848
-8500	5000	-495.212
-8000	5000	-655.524
-7500	5000	-811.794
-7000	5000	-963.059
-6500	5000	-1108.39
-6000	5000	-1246.88
-5500	5000	-1377.69
-5000	5000	-1500
-4500	5000	-1613.06
-4000	5000	-1716.18
-3500	5000	-1808.72
-3000	5000	-1890.11
-2500	5000	-1959.84
-2000	5000	-2017.5
-1500	5000	-2062.71
-1000	5000	-2095.2
-500	5000	-2114.78
0	5000	-2121.32
500	5000	-2114.78
1000	5000	-2095.2
1500	5000	-2062.71
2000	5000	-2017.5
2500	5000	-1959.84
3000	5000	-1890.11
3500	5000	-1808.72
4000	5000	-1716.18
4500	5000	-1613.06
5000	5000	-1500
5500	5000	-1377.69
6000	5000	-1246.88
6500	5000	-1108.39
7000	5000	-963.059
7500	5000	-811.794
8000	5000	-655.524
8500	5000	-495.212
9000	5000	-331.848
9500	5000	-166.437
10000	5000	-0
-10000	5500	-0
-9500	5500	-178.982
-9000	5500	-356.861
-8500	5500	-532.54
-8000	5500	-704.935
-7500	5500	-872.984
-7000	5500	-1035.65
-6500	5500	-1191.93
-6000	5500	-1340.87
-5500	5500	-1481.53
-5000	5500	-1613.06
-4500	5500	-1734.65
-4000	5500	-1845.54
-3500	5500	-1945.06
-3000	5500	-2032.58
-2500	5500	-2107.57
-2000	5500	-2169.57
-1500	5500	-2218.19
-1000	5500	-2253.13
-500	5500	-2274.19
0	5500	-2281.22
500	5500	-2274.19
1000	5500	-2253.13
1500	5500	-2218.19
2000	5500	-2169.57
2500	5500	-2107.57
3000	5500	-2032.58
3500	5500	-1945.06
4000	5500	-1845.54
4500	5500	-1734.65
5000	5500	-1613.06
5500	5500	-1481.53
6000	5500	-1340.87
6500	5500	-1191.93
7000	5500	-1035.65
7500	5500	-872.984
8000	5500	-704.935
8500	5500	-532.54
9000	5500	-356.861
9500	5500	-178.982
10000	5500	-0
-10000	6000	-0
-9500	6000	-190.424
-9000	6000	-379.674
-8500	6000	-566.584
-8000	6000	-750
-7500	6000	-928.792
[...]
CELL_DATA	55563
SCALARS tet_marker int 1
LOOKUP_TABLE default
1
9999999
9999999
9999999
2
9999999
3
9999999
4
5
9999999
6
7
9999999
9999999
9999999
9999999
8
9999999
9999999
9
10
9999999
11
12
9999999
13
6666666
14
9999999
9999999
9999999
15
9999999
16
17
18
9999999
6666666
19
9999999
9999999
9999999
9999999
9999999
9999999
20
21
9999999
9999999
9999999
9999999
9999999
22
9999999
9999999
9999999
23
9999999
24
25
9999999
9999999
9999999
9999999
26
27
9999999
9999999
9999999
9999999
28
9999999
9999999
29
9999999
6666666
30
31
9999999
9999999
9999999
9999999
32
33
9999999
34
35
9999999
36
9999999
37
9999999
9999999
38
39
40
41
9999999
9999999
9999999
9999999
9999999
9999999
42
43
44
9999999
45
46
47
48
9999999
9999999
9999999
49
50
9999999
51
9999999
52
9999999
9999999
53
54
6666666
9999999
55
6666666
9999999
9999999
6666666
9999999
9999999
56
57
58
59
9999999
60
61
9999999
9999999
62
9999999
63
9999999
64
65
9999999
66
67
68
9999999
9999999
69
9999999
9999999
9999999
9999999
70
9999999
9999999
9999999
9999999
6666666
9999999
71
9999999
9999999
72
9999999
9999999
9999999
9999999
73
74
75
76
77
78
9999999
9999999
79
6666666
9999999
80
81
82
83
84
85
9999999
9999999
86
9999999
9999999
9999999
87
9999999
9999999
88
9999999
89
9999999
90
9999999
91
9999999
92
93
9999999
94
9999999
9999999
95
9999999
9999999
96
97
98
99
9999999
9999999
100
101
9999999
102
103
6666666
104
9999999
6666666
105
6666666
9999999
9999999
106
9999999
9999999
9999999
107
9999999
9999999
108
9999999
109
110
111
112
9999999
9999999
9999999
9999999
6666666
9999999
9999999
113
6666666
114
9999999
9999999
9999999
9999999
115
9999999
9999999
116
6666666
9999999
9999999
9999999
117
118
9999999
119
120
121
9999999
122
6666666
123
9999999
124
125
9999999
126
127
128
129
9999999
130
9999999
9999999
131
6666666
9999999
9999999
132
133
9999999
9999999
9999999
134
135
9999999
136
137
138
9999999
139
140
9999999
141
9999999
142
9999999
9999999
143
9999999
144
145
9999999
9999999
9999999
9999999
9999999
9999999
146
9999999
147
9999999
9999999
148
149
9999999
150
9999999
151
152
6666666
9999999
153
9999999
9999999
9999999
9999999
154
155
156
9999999
9999999
157
158
9999999
9999999
9999999
9999999
9999999
9999999
159
9999999
160
161
9999999
162
163
164
165
9999999
9999999
9999999
166
167
9999999
168
9999999
169
9999999
9999999
9999999
170
9999999
9999999
9999999
6666666
171
9999999
172
9999999
9999999
9999999
9999999
9999999
173
9999999
9999999
174
175
176
9999999
177
9999999
178
9999999
9999999
179
180
181
9999999
9999999
182
183
184
9999999
9999999
185
9999999
9999999
9999999
186
9999999
9999999
187
9999999
9999999
6666666
188
9999999
189
9999999
9999999
190
9999999
191
192
9999999
6666666
193
194
195
196
9999999
197
9999999
9999999
9999999
9999999
198
9999999
199
200
9999999
201
202
203
204
9999999
6666666
9999999
9999999
9999999
205
206
207
208
9999999
9999999
9999999
6666666
9999999
209
9999999
210
9999999
211
212
9999999
9999999
9999999
213
9999999
9999999
9999999
214
215
216
217
218
9999999
9999999
9999999
9999999
9999999
219
220
9999999
221
222
223
224
9999999
225
226
227
228
229
230
9999999
231
232
9999999
233
234
9999999
9999999
6666666
6666666
9999999
235
236
9999999
237
238
9999999
239
9999999
240
9999999
241
242
9999999
243
9999999
244
9999999
245
9999999
9999999
9999999
246
9999999
247
248
9999999
249
9999999
9999999
9999999
250
9999999
9999999
251
9999999
252
253
9999999
254
9999999
9999999
9999999
9999999
9999999
255
256
9999999
257
258
259
260
9999999
9999999
261
9999999
9999999
262
263
264
9999999
9999999
6666666
265
9999999
9999999
266
9999999
267
268
9999999
269
270
271
272
6666666
9999999
9999999
273
9999999
9999999
9999999
9999999
274
275
276
277
278
9999999
9999999
279
9999999
280
9999999
6666666
281
282
9999999
9999999
9999999
283
6666666
9999999
284
285
9999999
9999999
9999999
9999999
9999999
286
9999999
9999999
287
9999999
9999999
9999999
288
289
290
291
9999999
9999999
9999999
9999999
9999999
9999999
292
9999999
9999999
293
294
6666666
9999999
9999999
6666666
295
9999999
9999999
296
6666666
9999999
9999999
297
298
9999999
299
300
301
9999999
9999999
9999999
302
9999999
9999999
9999999
303
304
305
9999999
306
9999999
9999999
9999999
307
308
9999999
9999999
309
9999999
9999999
310
311
312
9999999
313
314
315
9999999
9999999
9999999
9999999
9999999
9999999
316
317
318
9999999
9999999
9999999
9999999
319
320
9999999
9999999
9999999
9999999
321
9999999
9999999
9999999
322
9999999
9999999
323
324
9999999
325
326
9999999
9999999
9999999
9999999
9999999
9999999
9999999
327
6666666
9999999
9999999
9999999
328
329
9999999
330
9999999
9999999
331
332
9999999
333
334
335
9999999
9999999
9999999
9999999
336
9999999
337
338
9999999
339
340
341
9999999
9999999
9999999
9999999
6666666
342
9999999
9999999
343
9999999
9999999
9999999
344
345
9999999
9999999
9999999
346
6666666
9999999
9999999
347
9999999
9999999
348
349
9999999
350
351
352
353
9999999
9999999
354
9999999
355
356
357
358
9999999
9999999
9999999
9999999
359
9999999
9999999
9999999
360
9999999
9999999
9999999
9999999
361
9999999
9999999
362
363
6666666
9999999
364
9999999
365
9999999
9999999
366
9999999
367
9999999
368
9999999
9999999
369
370
371
372
9999999
373
9999999
9999999
9999999
9999999
374
375
6666666
9999999
376
377
378
379
380
381
382
9999999
9999999
6666666
9999999
9999999
383
9999999
384
385
386
387
388
9999999
9999999
9999999
9999999
9999999
389
390
9999999
391
392
9999999
9999999
9999999
9999999
393
9999999
9999999
9999999
394
395
9999999
396
397
398
399
400
401
402
9999999
6666666
403
404
405
406
9999999
9999999
9999999
407
408
409
410
411
412
413
414
9999999
415
416
417
9999999
9999999
9999999
418
9999999
419
9999999
9999999
9999999
9999999
9999999
6666666
9999999
420
9999999
421
9999999
9999999
9999999
9999999
9999999
9999999
422
9999999
9999999
9999999
9999999
9999999
423
9999999
6666666
9999999
424
9999999
9999999
9999999
425
6666666
426
9999999
427
428
429
9999999
430
9999999
9999999
9999999
431
432
9999999
433
434
6666666
9999999
435
9999999
9999999
436
9999999
9999999
437
438
9999999
9999999
439
440
441
9999999
442
443
9999999
444
445
9999999
9999999
9999999
446
447
9999999
448
449
9999999
450
9999999
9999999
6666666
9999999
451
6666666
452
453
9999999
454
9999999
455
9999999
9999999
456
9999999
9999999
457
9999999
458
9999999
9999999
9999999
459
460
9999999
9999999
461
462
9999999
9999999
9999999
9999999
463
464
465
466
9999999
9999999
467
9999999
468
9999999
9999999
9999999
469
470
9999999
9999999
471
9999999
9999999
472
9999999
9999999
9999999
9999999
473
9999999
9999999
474
9999999
475
9999999
9999999
9999999
9999999
9999999
476
9999999
477
6666666
478
479
9999999
9999999
480
9999999
481
482
9999999
483
9999999
9999999
9999999
9999999
484
9999999
9999999
485
6666666
486
9999999
487
9999999
9999999
9999999
9999999
9999999
488
489
9999999
490
9999999
6666666
491
492
493
494
495
9999999
9999999
496
497
9999999
498
9999999
499
9999999
500
501
9999999
9999999
502
9999999
503
504
6666666
505
9999999
506
9999999
9999999
9999999
9999999
9999999
9999999
507
9999999
9999999
508
9999999
6666666
509
9999999
9999999
9999999
9999999
510
511
512
513
9999999
9999999
9999999
514
9999999
515
516
9999999
517
518
519
9999999
9999999
9999999
9999999
9999999
9999999
520
521
9999999
9999999
9999999
522
523
9999999
524
9999999
525
9999999
9999999
9999999
9999999
526
527
9999999
9999999
9999999
528
529
530
9999999
9999999
531
532
533
534
535
9999999
9999999
536
537
9999999
538
9999999
539
9999999
6666666
9999999
9999999
540
9999999
541
9999999
9999999
9999999
542
9999999
9999999
543
544
545
9999999
546
547
548
549
550
9999999
551
9999999
552
553
554
9999999
9999999
555
9999999
556
9999999
9999999
557
9999999
558
9999999
559
560
9999999
561
9999999
562
563
564
9999999
9999999
565
566
9999999
567
9999999
568
9999999
9999999
9999999
569
9999999
570
9999999
9999999
571
9999999
572
9999999
9999999
573
574
9999999
575
576
9999999
9999999
9999999
577
9999999
578
579
580
9999999
581
9999999
582
583
9999999
9999999
584
9999999
585
9999999
586
9999999
9999999
9999999
587
9999999
9999999
588
9999999
9999999
9999999
9999999
9999999
589
590
6666666
591
592
9999999
9999999
9999999
9999999
593
594
9999999
9999999
9999999
9999999
595
9999999
596
9999999
9999999
597
9999999
9999999
9999999
598
9999999
9999999
9999999
599
9999999
9999999
9999999
600
601
9999999
602
9999999
9999999
9999999
9999999
6666666
603
6666666
604
9999999
9999999
605
9999999
606
607
9999999
608
609
9999999
610
611
9999999
9999999
9999999
9999999
9999999
9999999
612
613
614
9999999
615
6666666
616
617
618
6666666
9999999
619
9999999
620
9999999
9999999
9999999
9999999
9999999
621
9999999
6666666
9999999
9999999
622
9999999
9999999
623
9999999
9999999
9999999
9999999
624
625
9999999
626
9999999
9999999
9999999
9999999
9999999
627
9999999
628
9999999
9999999
629
630
631
632
633
9999999
9999999
9999999
9999999
9999999
634
635
9999999
636
9999999
9999999
9999999
637
9999999
638
9999999
9999999
639
9999999
640
9999999
641
642
9999999
643
644
9999999
645
9999999
646
9999999
9999999
647
648
649
9999999
650
9999999
651
9999999
9999999
652
9999999
9999999
653
9999999
654
9999999
9999999
9999999
655
656
9999999
9999999
657
658
659
660
6666666
9999999
9999999
9999999
6666666
661
662
9999999
663
664
665
666
667
668
6666666
9999999
9999999
669
670
9999999
9999999
671
672
9999999
673
9999999
9999999
674
9999999
675
9999999
9999999
9999999
676
677
678
679
680
9999999
681
9999999
9999999
9999999
9999999
682
683
684
685
9999999
9999999
9999999
9999999
686
687
688
689
690
9999999
9999999
9999999
9999999
691
9999999
9999999
9999999
692
9999999
693
9999999
694
695
9999999
696
697
9999999
9999999
9999999
9999999
9999999
698
699
9999999
9999999
9999999
9999999
700
6666666
701
702
9999999
9999999
9999999
9999999
9999999
9999999
703
9999999
704
705
9999999
9999999
706
9999999
9999999
9999999
707
9999999
9999999
9999999
9999999
9999999
708
9999999
9999999
709
6666666
6666666
9999999
9999999
710
711
712
713
714
9999999
9999999
715
716
9999999
9999999
717
9999999
6666666
9999999
9999999
718
719
720
9999999
721
9999999
9999999
722
723
724
9999999
6666666
725
9999999
9999999
6666666
9999999
726
727
728
729
9999999
730
9999999
731
9999999
9999999
732
733
9999999
9999999
734
9999999
735
9999999
9999999
736
737
9999999
738
739
740
741
742
743
744
9999999
745
746
9999999
9999999
747
748
6666666
749
9999999
9999999
9999999
9999999
9999999
750
9999999
751
752
9999999
6666666
753
9999999
6666666
754
9999999
9999999
755
756
9999999
757
9999999
758
759
9999999
9999999
9999999
760
761
9999999
9999999
9999999
762
763
764
6666666
9999999
9999999
765
766
9999999
767
9999999
768
769
9999999
9999999
9999999
770
771
9999999
772
773
9999999
6666666
9999999
9999999
9999999
774
9999999
9999999
775
9999999
9999999
776
777
778
6666666
779
9999999
9999999
9999999
780
781
782
783
9999999
9999999
784
9999999
9999999
9999999
9999999
9999999
785
9999999
786
787
9999999
788
9999999
9999999
789
790
9999999
791
9999999
792
9999999
9999999
793
9999999
9999999
9999999
9999999
9999999
6666666
6666666
794
795
6666666
796
797
798
799
800
801
9999999
802
803
804
805
806
9999999
807
9999999
9999999
9999999
6666666
9999999
9999999
9999999
9999999
808
809
9999999
810
811
812
9999999
813
814
9999999
9999999
9999999
9999999
9999999
815
9999999
9999999
816
817
818
9999999
819
820
821
9999999
822
9999999
823
9999999
9999999
9999999
9999999
9999999
9999999
824
9999999
9999999
825
9999999
9999999
826
827
828
9999999
9999999
829
9999999
830
9999999
9999999
9999999
9999999
9999999
831
832
9999999
9999999
9999999
833
9999999
834
835
9999999
836
837
9999999
838
839
9999999
9999999
840
841
9999999
842
9999999
9999999
9999999
9999999
843
6666666
9999999
9999999
6666666
9999999
844
845
9999999
9999999
9999999
9999999
9999999
846
9999999
9999999
9999999
847
9999999
9999999
848
849
850
9999999
9999999
9999999
851
6666666
9999999
9999999
9999999
9999999
9999999
9999999
852
853
854
9999999
855
9999999
9999999
6666666
9999999
9999999
856
9999999
9999999
9999999
9999999
9999999
857
858
859
9999999
860
861
9999999
862
863
9999999
864
9999999
9999999
865
9999999
9999999
866
9999999
9999999
9999999
9999999
867
868
869
9999999
9999999
870
871
872
9999999
9999999
9999999
6666666
873
9999999
874
9999999
875
9999999
876
877
878
879
880
881
9999999
9999999
882
9999999
9999999
883
884
9999999
9999999
9999999
885
886
887
888
9999999
9999999
889
9999999
890
9999999
891
892
9999999
893
9999999
9999999
894
895
9999999
896
9999999
897
6666666
9999999
9999999
9999999
898
9999999
9999999
9999999
899
9999999
9999999
900
9999999
9999999
9999999
9999999
901
902
903
6666666
904
9999999
905
9999999
906
9999999
907
908
9999999
9999999
9999999
9999999
909
910
911
9999999
9999999
912
9999999
9999999
913
914
9999999
915
9999999
9999999
9999999
9999999
9999999
9999999
9999999
916
917
918
919
920
921
922
9999999
9999999
9999999
923
9999999
6666666
924
9999999
925
926
9999999
927
928
929
930
931
9999999
932
9999999
933
934
9999999
935
936
9999999
9999999
937
938
939
9999999
940
941
9999999
6666666
942
9999999
943
9999999
944
9999999
945
9999999
946
9999999
947
948
6666666
9999999
949
950
9999999
951
952
9999999
953
9999999
954
9999999
9999999
955
9999999
9999999
9999999
956
9999999
957
9999999
9999999
9999999
958
9999999
9999999
9999999
959
9999999
960
961
9999999
9999999
962
9999999
9999999
963
9999999
9999999
964
9999999
9999999
9999999
9999999
9999999
9999999
9999999
9999999
965
966
9999999
967
9999999
9999999
9999999
9999999
968
969
970
971
972
973
6666666
9999999
9999999
974
9999999
975
9999999
976
9999999
977
9999999
978
9999999
979
9999999
980
9999999
981
982
983
9999999
984
985
6666666
9999999
9999999
986
9999999
987
6666666
988
989
990
9999999
991
9999999
992
993
9999999
994
995
9999999
996
9999999
9999999
9999999
9999999
6666666
997
9999999
998
999
9999999
9999999
1000
9999999
9999999
9999999
1001
1002
9999999
9999999
1003
9999999
9999999
9999999
9999999
1004
1005
1006
9999999
1007
9999999
9999999
9999999
1008
9999999
9999999
1009
9999999
1010
1011
1012
9999999
1013
1014
9999999
1015
1016
1017
6666666
9999999
9999999
9999999
1018
1019
9999999
9999999
1020
1021
1022
9999999
9999999
9999999
1023
1024
9999999
1025
9999999
9999999
1026
9999999
1027
9999999
9999999
9999999
1028
9999999
1029
1030
1031
6666666
9999999
1032
9999999
9999999
1033
9999999
1034
9999999
9999999
9999999
9999999
1035
9999999
1036
1037
9999999
1038
9999999
1039
9999999
9999999
9999999
9999999
1040
6666666
1041
9999999
9999999
9999999
9999999
1042
9999999
1043
9999999
9999999
6666666
9999999
9999999
1044
1045
9999999
1046
9999999
1047
9999999
1048
9999999
9999999
1049
1050
9999999
9999999
1051
9999999
1052
9999999
1053
1054
1055
9999999
1056
1057
9999999
9999999
9999999
1058
1059
9999999
9999999
9999999
1060
1061
1062
1063
1064
1065
1066
1067
9999999
1068
1069
9999999
9999999
1070
1071
9999999
9999999
9999999
1072
1073
1074
9999999
9999999
1075
9999999
1076
9999999
1077
9999999
1078
9999999
1079
1080
1081
1082
9999999
9999999
9999999
1083
1084
9999999
9999999
6666666
1085
6666666
9999999
1086
1087
1088
1089
9999999
9999999
9999999
1090
9999999
9999999
9999999
9999999
1091
1092
1093
1094
9999999
9999999
9999999
9999999
9999999
9999999
9999999
9999999
6666666
1095
1096
1097
1098
1099
9999999
9999999
1100
1101
1102
9999999
1103
9999999
9999999
9999999
1104
9999999
9999999
1105
1106
9999999
1107
1108
9999999
9999999
1109
9999999
9999999
9999999
1110
1111
1112
1113
9999999
9999999
9999999
9999999
1114
1115
1116
6666666
1117
6666666
9999999
9999999
9999999
1118
1119
9999999
1120
9999999
9999999
1121
9999999
6666666
1122
6666666
1123
6666666
9999999
1124
9999999
9999999
9999999
6666666
9999999
9999999
1125
1126
9999999
1127
1128
1129
9999999
9999999
1130
9999999
1131
1132
1133
1134
9999999
9999999
1135
9999999
1136
9999999
9999999
1137
1138
9999999
1139
9999999
9999999
1140
9999999
6666666
1141
1142
1143
1144
1145
1146
1147
1148
9999999
9999999
9999999
1149
9999999
1150
1151
9999999
9999999
1152
9999999
9999999
9999999
9999999
1153
9999999
1154
9999999
9999999
9999999
9999999
1155
9999999
1156
1157
9999999
9999999
9999999
1158
1159
9999999
1160
1161
1162
9999999
9999999
9999999
1163
9999999
9999999
9999999
9999999
9999999
1164
1165
6666666
1166
1167
1168
9999999
9999999
1169
9999999
1170
9999999
1171
1172
9999999
1173
9999999
9999999
1174
9999999
9999999
1175
9999999
9999999
9999999
9999999
1176
9999999
9999999
1177
1178
1179
9999999
9999999
9999999
1180
9999999
1181
1182
1183
1184
1185
1186
9999999
9999999
9999999
6666666
1187
1188
1189
9999999
9999999
9999999
9999999
9999999
9999999
1190
1191
9999999
9999999
9999999
1192
9999999
9999999
9999999
1193
1194
1195
1196
1197
9999999
9999999
9999999
1198
1199
9999999
1200
1201
9999999
1202
1203
1204
1205
9999999
9999999
1206
1207
1208
9999999
9999999
1209
1210
1211
9999999
1212
9999999
1213
1214
9999999
9999999
1215
9999999
9999999
6666666
9999999
9999999
9999999
9999999
1216
9999999
9999999
9999999
9999999
1217
9999999
9999999
1218
1219
9999999
1220
1221
9999999
9999999
9999999
9999999
9999999
1222
1223
9999999
9999999
1224
1225
9999999
1226
1227
9999999
1228
9999999
9999999
1229
1230
9999999
9999999
9999999
9999999
1231
1232
9999999
9999999
9999999
9999999
1233
9999999
1234
9999999
9999999
9999999
1235
1236
9999999
9999999
9999999
1237
9999999
1238
9999999
9999999
1239
9999999
1240
9999999
6666666
9999999
1241
9999999
9999999
9999999
9999999
9999999
9999999
1242
1243
9999999
9999999
1244
6666666
1245
1246
1247
9999999
1248
9999999
1249
9999999
6666666
1250
9999999
1251
1252
9999999
9999999
9999999
9999999
1253
1254
9999999
1255
9999999
1256
1257
9999999
1258
1259
1260
9999999
1261
9999999
9999999
1262
9999999
1263
9999999
9999999
9999999
1264
1265
9999999
1266
1267
1268
9999999
1269
9999999
9999999
9999999
1270
9999999
1271
9999999
1272
9999999
1273
1274
1275
9999999
9999999
1276
9999999
9999999
9999999
1277
1278
1279
9999999
1280
1281
9999999
1282
1283
9999999
9999999
1284
9999999
1285
9999999
9999999
9999999
9999999
1286
1287
1288
9999999
9999999
1289
6666666
9999999
9999999
1290
1291
1292
1293
9999999
1294
9999999
1295
9999999
9999999
9999999
1296
9999999
1297
1298
9999999
1299
6666666
9999999
9999999
1300
9999999
9999999
6666666
9999999
9999999
9999999
1301
1302
9999999
9999999
9999999
9999999
9999999
1303
1304
9999999
1305
9999999
1306
1307
9999999
1308
9999999
1309
1310
1311
9999999
9999999
1312
9999999
1313
1314
6666666
9999999
9999999
1315
1316
1317
6666666
1318
9999999
1319
9999999
9999999
1320
1321
1322
9999999
1323
1324
1325
6666666
1326
9999999
1327
9999999
1328
9999999
1329
1330
6666666
9999999
9999999
1331
1332
9999999
9999999
1333
1334
1335
1336
1337
1338
9999999
1339
1340
9999999
1341
1342
1343
1344
9999999
9999999
9999999
1345
9999999
1346
1347
9999999
9999999
1348
1349
1350
9999999
9999999
1351
9999999
9999999
9999999
9999999
1352
9999999
1353
1354
1355
1356
1357
1358
1359
9999999
1360
1361
9999999
1362
1363
9999999
1364
1365
1366
9999999
6666666
9999999
9999999
9999999
1367
9999999
1368
9999999
9999999
6666666
9999999
9999999
1369
1370
9999999
1371
1372
1373
1374
9999999
9999999
1375
1376
9999999
1377
1378
1379
1380
9999999
9999999
9999999
6666666
1381
9999999
9999999
9999999
9999999
1382
1383
1384
9999999
9999999
1385
9999999
9999999
6666666
1386
1387
9999999
9999999
9999999
1388
1389
1390
1391
9999999
1392
9999999
1393
1394
1395
1396
9999999
1397
1398
1399
1400
9999999
9999999
1401
9999999
9999999
9999999
6666666
9999999
9999999
9999999
9999999
1402
1403
1404
1405
1406
6666666
1407
9999999
9999999
1408
1409
1410
1411
9999999
1412
1413
1414
9999999
1415
1416
9999999
9999999
9999999
1417
9999999
1418
9999999
6666666
1419
1420
1421
1422
9999999
6666666
1423
1424
1425
9999999
1426
1427
1428
1429
9999999
9999999
1430
1431
1432
1433
9999999
1434
1435
9999999
1436
9999999
9999999
9999999
9999999
1437
1438
1439
1440
9999999
9999999
9999999
9999999
1441
9999999
6666666
6666666
1442
1443
1444
9999999
9999999
1445
9999999
9999999
1446
9999999
9999999
9999999
9999999
9999999
9999999
1447
9999999
1448
1449
1450
1451