# vtk DataFile Version 3.0
For visulization of ele data
ASCII
DATASET UNSTRUCTURED_GRID

POINTS	13745	double
-12000	-21000	-0
-12000	-15000	-0
-12000	-9000	-0
-12000	-3000	-0
-12000	3000	-0
-12000	9000	-0
-12000	15000	-0
-12000	21000	-0
-6000	-21000	-0
-6000	-15000	1246.88
-6000	-9000	1741.65
-6000	-3000	800.547
-6000	3000	-800.547
-6000	9000	-1741.65
-6000	15000	-1246.88
-6000	21000	-0
0	-21000	-0
0	-15000	2121.32
0	-9000	2963.07
0	-3000	1361.97
0	3000	-1361.97
0	9000	-2963.07
0	15000	-2121.32
0	21000	-0
6000	-21000	-0
6000	-15000	1246.88
6000	-9000	1741.65
6000	-3000	800.547
6000	3000	-800.547
6000	9000	-1741.65
6000	15000	-1246.88
6000	21000	-0
12000	-21000	-0
12000	-15000	-0
12000	-9000	-0
12000	-3000	-0
12000	3000	-0
12000	9000	-0
12000	15000	-0
12000	21000	-0
12500	-22500	-0
-12500	-22500	-0
-12500	22500	-0
12500	22500	-0
20000	-30000	-0
-20000	-30000	-0
-20000	30000	-0
20000	30000	-0
150000	-150000	-0
-150000	-150000	-0
-150000	150000	-0
150000	150000	-0
-10000	0	-0
-9500	0	-0
-9000	0	-0
-8500	0	-0
-8000	0	-0
-7500	0	-0
-7000	0	-0
-6500	0	-0
-6000	0	-0
-5500	0	-0
-5000	0	-0
-4500	0	-0
-4000	0	-0
-3500	0	-0
-3000	0	-0
-2500	0	-0
-2000	0	-0
-1500	0	-0
-1000	0	-0
-500	0	-0
0	0	-0
500	0	-0
1000	0	-0
1500	0	-0
2000	0	-0
2500	0	-0
3000	0	-0
3500	0	-0
4000	0	-0
4500	0	-0
5000	0	-0
5500	0	-0
6000	0	-0
6500	0	-0
7000	0	-0
7500	0	-0
8000	0	-0
8500	0	-0
9000	0	-0
9500	0	-0
10000	0	-0
-10000	500	-0
-9500	500	-18.4675
-9000	500	-36.8211
-8500	500	-54.9477
-8000	500	-72.7356
-7500	500	-90.075
-7000	500	-106.859
-6500	500	-122.984
-6000	500	-138.351
-5500	500	-152.865
-5000	500	-166.437
-4500	500	-178.982
-4000	500	-190.424
-3500	500	-200.692
-3000	500	-209.723
-2500	500	-217.46
-2000	500	-223.857
-1500	500	-228.874
-1000	500	-232.479
-500	500	-234.652
0	500	-235.377
500	500	-234.652
1000	500	-232.479
1500	500	-228.874
2000	500	-223.857
2500	500	-217.46
3000	500	-209.723
3500	500	-200.692
4000	500	-190.424
4500	500	-178.982
5000	500	-166.437
5500	500	-152.865
6000	500	-138.351
6500	500	-122.984
7000	500	-106.859
7500	500	-90.075
8000	500	-72.7356
8500	500	-54.9477
9000	500	-36.8211
9500	500	-18.4675
10000	500	-0
-10000	1000	-0
-9500	1000	-36.8211
-9000	1000	-73.4152
-8500	1000	-109.557
-8000	1000	-145.023
-7500	1000	-179.595
-7000	1000	-213.059
-6500	1000	-245.21
-6000	1000	-275.85
-5500	1000	-304.788
-5000	1000	-331.848
-4500	1000	-356.861
-4000	1000	-379.674
-3500	1000	-400.147
-3000	1000	-418.152
-2500	1000	-433.58
-2000	1000	-446.334
-1500	1000	-456.337
-1000	1000	-463.526
-500	1000	-467.857
0	1000	-469.303
500	1000	-467.857
1000	1000	-463.526
1500	1000	-456.337
2000	1000	-446.334
2500	1000	-433.58
3000	1000	-418.152
3500	1000	-400.147
4000	1000	-379.674
4500	1000	-356.861
5000	1000	-331.848
5500	1000	-304.788
6000	1000	-275.85
6500	1000	-245.21
7000	1000	-213.059
7500	1000	-179.595
8000	1000	-145.023
8500	1000	-109.557
9000	1000	-73.4152
9500	1000	-36.8211
10000	1000	-0
-10000	1500	-0
-9500	1500	-54.9477
-9000	1500	-109.557
-8500	1500	-163.49
-8000	1500	-216.416
-7500	1500	-268.007
-7000	1500	-317.946
-6500	1500	-365.925
-6000	1500	-411.647
-5500	1500	-454.832
-5000	1500	-495.212
-4500	1500	-532.54
-4000	1500	-566.584
-3500	1500	-597.135
-3000	1500	-624.004
-2500	1500	-647.026
-2000	1500	-666.059
-1500	1500	-680.986
-1000	1500	-691.714
-500	1500	-698.177
0	1500	-700.336
500	1500	-698.177
1000	1500	-691.714
1500	1500	-680.986
2000	1500	-666.059
2500	1500	-647.026
3000	1500	-624.004
3500	1500	-597.135
4000	1500	-566.584
4500	1500	-532.54
5000	1500	-495.212
5500	1500	-454.832
6000	1500	-411.647
6500	1500	-365.925
7000	1500	-317.946
7500	1500	-268.007
8000	1500	-216.416
8500	1500	-163.49
9000	1500	-109.557
9500	1500	-54.9477
10000	1500	-0
-10000	2000	-0
-9500	2000	-72.7356
-9000	2000	-145.023
-8500	2000	-216.416
-8000	2000	-286.474
-7500	2000	-354.767
-7000	2000	-420.872
-6500	2000	-484.383
-6000	2000	-544.907
-5500	2000	-602.072
-5000	2000	-655.524
-4500	2000	-704.935
-4000	2000	-750
-3500	2000	-790.441
-3000	2000	-826.009
-2500	2000	-856.483
-2000	2000	-881.678
-1500	2000	-901.437
-1000	2000	-915.637
-500	2000	-924.193
0	2000	-927.051
500	2000	-924.193
1000	2000	-915.637
1500	2000	-901.437
2000	2000	-881.678
2500	2000	-856.483
3000	2000	-826.009
3500	2000	-790.441
4000	2000	-750
4500	2000	-704.935
5000	2000	-655.524
5500	2000	-602.072
6000	2000	-544.907
6500	2000	-484.383
7000	2000	-420.872
7500	2000	-354.767
8000	2000	-286.474
8500	2000	-216.416
9000	2000	-145.023
9500	2000	-72.7356
10000	2000	-0
-10000	2500	-0
-9500	2500	-90.075
-9000	2500	-179.595
-8500	2500	-268.007
-8000	2500	-354.767
-7500	2500	-439.34
-7000	2500	-521.204
-6500	2500	-599.855
-6000	2500	-674.807
-5500	2500	-745.599
-5000	2500	-811.794
-4500	2500	-872.984
-4000	2500	-928.792
-3500	2500	-978.874
-3000	2500	-1022.92
-2500	2500	-1060.66
-2000	2500	-1091.86
-1500	2500	-1116.33
-1000	2500	-1133.92
-500	2500	-1144.51
0	2500	-1148.05
500	2500	-1144.51
1000	2500	-1133.92
1500	2500	-1116.33
2000	2500	-1091.86
2500	2500	-1060.66
3000	2500	-1022.92
3500	2500	-978.874
4000	2500	-928.792
4500	2500	-872.984
5000	2500	-811.794
5500	2500	-745.599
6000	2500	-674.807
6500	2500	-599.855
7000	2500	-521.204
7500	2500	-439.34
8000	2500	-354.767
8500	2500	-268.007
9000	2500	-179.595
9500	2500	-90.075
10000	2500	-0
-10000	3000	-0
-9500	3000	-106.859
-9000	3000	-213.059
-8500	3000	-317.946
-8000	3000	-420.872
-7500	3000	-521.204
-7000	3000	-618.322
-6500	3000	-711.628
-5500	3000	-884.53
-5000	3000	-963.059
-4500	3000	-1035.65
-4000	3000	-1101.86
-3500	3000	-1161.27
-3000	3000	-1213.53
-2500	3000	-1258.3
-2000	3000	-1295.31
-1500	3000	-1324.34
-1000	3000	-1345.2
-500	3000	-1357.77
500	3000	-1357.77
1000	3000	-1345.2
1500	3000	-1324.34
2000	3000	-1295.31
2500	3000	-1258.3
3000	3000	-1213.53
3500	3000	-1161.27
4000	3000	-1101.86
4500	3000	-1035.65
5000	3000	-963.059
5500	3000	-884.53
6500	3000	-711.628
7000	3000	-618.322
7500	3000	-521.204
8000	3000	-420.872
8500	3000	-317.946
9000	3000	-213.059
9500	3000	-106.859
10000	3000	-0
-10000	3500	-0
-9500	3500	-122.984
-9000	3500	-245.21
-8500	3500	-365.925
-8000	3500	-484.383
-7500	3500	-599.855
-7000	3500	-711.628
-6500	3500	-819.014
-6000	3500	-921.351
-5500	3500	-1018.01
-5000	3500	-1108.39
-4500	3500	-1191.93
-4000	3500	-1268.13
-3500	3500	-1336.51
-3000	3500	-1396.65
-2500	3500	-1448.18
-2000	3500	-1490.78
-1500	3500	-1524.19
-1000	3500	-1548.2
-500	3500	-1562.66
0	3500	-1567.5
500	3500	-1562.66
1000	3500	-1548.2
1500	3500	-1524.19
2000	3500	-1490.78
2500	3500	-1448.18
3000	3500	-1396.65
3500	3500	-1336.51
4000	3500	-1268.13
4500	3500	-1191.93
5000	3500	-1108.39
5500	3500	-1018.01
6000	3500	-921.351
6500	3500	-819.014
7000	3500	-711.628
7500	3500	-599.855
8000	3500	-484.383
8500	3500	-365.925
9000	3500	-245.21
9500	3500	-122.984
10000	3500	-0
-10000	4000	-0
-9500	4000	-138.351
-9000	4000	-275.85
-8500	4000	-411.647
-8000	4000	-544.907
-7500	4000	-674.807
-7000	4000	-800.547
-6500	4000	-921.351
-6000	4000	-1036.47
-5500	4000	-1145.21
-5000	4000	-1246.88
-4500	4000	-1340.87
-4000	4000	-1426.58
-3500	4000	-1503.51
-3000	4000	-1571.16
-2500	4000	-1629.13
-2000	4000	-1677.05
-1500	4000	-1714.63
-1000	4000	-1741.65
-500	4000	-1757.92
0	4000	-1763.36
500	4000	-1757.92
1000	4000	-1741.65
1500	4000	-1714.63
2000	4000	-1677.05
2500	4000	-1629.13
3000	4000	-1571.16
3500	4000	-1503.51
4000	4000	-1426.58
4500	4000	-1340.87
5000	4000	-1246.88
5500	4000	-1145.21
6000	4000	-1036.47
6500	4000	-921.351
7000	4000	-800.547
7500	4000	-674.807
8000	4000	-544.907
8500	4000	-411.647
9000	4000	-275.85
9500	4000	-138.351
10000	4000	-0
-10000	4500	-0
-9500	4500	-152.865
-9000	4500	-304.788
-8500	4500	-454.832
-8000	4500	-602.072
-7500	4500	-745.599
-7000	4500	-884.53
-6500	4500	-1018.01
-6000	4500	-1145.21
-5500	4500	-1265.35
-5000	4500	-1377.69
-4500	4500	-1481.53
-4000	4500	-1576.24
-3500	4500	-1661.24
-3000	4500	-1735.99
-2500	4500	-1800.04
-2000	4500	-1852.99
-1500	4500	-1894.51
-1000	4500	-1924.36
-500	4500	-1942.34
0	4500	-1948.34
500	4500	-1942.34
1000	4500	-1924.36
1500	4500	-1894.51
2000	4500	-1852.99
2500	4500	-1800.04
3000	4500	-1735.99
3500	4500	-1661.24
4000	4500	-1576.24
4500	4500	-1481.53
5000	4500	-1377.69
5500	4500	-1265.35
6000	4500	-1145.21
6500	4500	-1018.01
7000	4500	-884.53
7500	4500	-745.599
8000	4500	-602.072
8500	4500	-454.832
9000	4500	-304.788
9500	4500	-152.865
10000	4500	-0
-10000	5000	-0
-9500	5000	-166.437
-9000	5000	-331.848
-8500	5000	-495.212
-8000	5000	-655.524
-7500	5000	-811.794
-7000	5000	-963.059
-6500	5000	-1108.39
-6000	5000	-1246.88
-5500	5000	-1377.69
-5000	5000	-1500
-4500	5000	-1613.06
-4000	5000	-1716.18
-3500	5000	-1808.72
-3000	5000	-1890.11
-2500	5000	-1959.84
-2000	5000	-2017.5
-1500	5000	-2062.71
-1000	5000	-2095.2
-500	5000	-2114.78
0	5000	-2121.32
500	5000	-2114.78
1000	5000	-2095.2
1500	5000	-2062.71
2000	5000	-2017.5
2500	5000	-1959.84
3000	5000	-1890.11
3500	5000	-1808.72
4000	5000	-1716.18
4500	5000	-1613.06
5000	5000	-1500
5500	5000	-1377.69
6000	5000	-1246.88
6500	5000	-1108.39
7000	5000	-963.059
7500	5000	-811.794
8000	5000	-655.524
8500	5000	-495.212
9000	5000	-331.848
9500	5000	-166.437
10000	5000	-0
-10000	5500	-0
-9500	5500	-178.982
-9000	5500	-356.861
-8500	5500	-532.54
-8000	5500	-704.935
-7500	5500	-872.984
-7000	5500	-1035.65
-6500	5500	-1191.93
-6000	5500	-1340.87
-5500	5500	-1481.53
-5000	5500	-1613.06
-4500	5500	-1734.65
-4000	5500	-1845.54
-3500	5500	-1945.06
-3000	5500	-2032.58
-2500	5500	-2107.57
-2000	5500	-2169.57
-1500	5500	-2218.19
-1000	5500	-2253.13
-500	5500	-2274.19
0	5500	-2281.22
500	5500	-2274.19
1000	5500	-2253.13
1500	5500	-2218.19
2000	5500	-2169.57
2500	5500	-2107.57
3000	5500	-2032.58
3500	5500	-1945.06
4000	5500	-1845.54
4500	5500	-1734.65
5000	5500	-1613.06
5500	5500	-1481.53
6000	5500	-1340.87
6500	5500	-1191.93
7000	5500	-1035.65
7500	5500	-872.984
8000	5500	-704.935
8500	5500	-532.54
9000	5500	-356.861
9500	5500	-178.982
10000	5500	-0
-10000	6000	-0
-9500	6000	-190.424
-9000	6000	-379.674
-8500	6000	-566.584
-8000	6000	-750
-7500	6000	-928.792
[...]
CELL_DATA	80982
SCALARS tet_marker int 1
LOOKUP_TABLE default
1
9999999
9999999
6666666
2
9999999
3
9999999
4
5
9999999
6
7
9999999
9999999
9999999
9999999
8
9999999
9999999
9
10
9999999
11
12
9999999
13
6666666
14
9999999
9999999
9999999
15
9999999
16
17
18
9999999
6666666
19
9999999
9999999
9999999
9999999
9999999
9999999
20
21
9999999
9999999
9999999
9999999
9999999
22
9999999
9999999
9999999
23
9999999
24
25
9999999
9999999
9999999
9999999
26
27
9999999
9999999
9999999
9999999
28
9999999
9999999
29
9999999
6666666
30
31
9999999
9999999
9999999
9999999
32
33
9999999
34
35
9999999
36
9999999
37
9999999
9999999
38
39
40
41
9999999
9999999
9999999
9999999
9999999
9999999
42
43
44
9999999
45
46
47
48
9999999
9999999
9999999
49
50
9999999
51
9999999
52
9999999
9999999
53
54
6666666
9999999
55
6666666
9999999
9999999
6666666
9999999
9999999
56
57
58
59
9999999
60
61
9999999
9999999
62
9999999
63
9999999
64
65
9999999
66
67
68
9999999
9999999
69
9999999
9999999
9999999
9999999
70
9999999
9999999
9999999
9999999
6666666
9999999
71
9999999
9999999
72
9999999
9999999
9999999
9999999
73
74
75
76
77
78
9999999
9999999
79
6666666
9999999
80
81
82
83
84
85
9999999
9999999
86
9999999
6666666
9999999
87
9999999
9999999
88
9999999
89
9999999
90
9999999
91
9999999
92
93
9999999
94
9999999
9999999
95
9999999
9999999
96
97
98
99
6666666
6666666
100
101
9999999
102
103
6666666
104
9999999
6666666
105
6666666
9999999
9999999
106
9999999
9999999
9999999
107
9999999
9999999
108
9999999
109
110
111
112
9999999
9999999
9999999
9999999
6666666
9999999
9999999
113
9999999
114
9999999
9999999
9999999
9999999
115
9999999
9999999
116
6666666
9999999
9999999
9999999
117
118
9999999
119
120
121
9999999
122
6666666
123
9999999
124
125
9999999
126
127
128
129
9999999
130
9999999
9999999
131
6666666
9999999
9999999
132
133
9999999
9999999
9999999
134
135
9999999
136
137
138
9999999
139
140
9999999
141
9999999
142
9999999
9999999
143
9999999
144
145
9999999
9999999
9999999
9999999
9999999
9999999
146
9999999
147
9999999
9999999
148
149
9999999
150
9999999
151
152
6666666
9999999
153
9999999
9999999
6666666
9999999
154
155
156
9999999
9999999
157
158
9999999
9999999
9999999
9999999
9999999
9999999
159
9999999
160
161
9999999
162
163
164
165
9999999
6666666
9999999
166
167
9999999
168
9999999
169
9999999
9999999
9999999
170
9999999
9999999
9999999
6666666
171
9999999
172
9999999
9999999
9999999
9999999
9999999
173
9999999
9999999
174
175
176
9999999
177
9999999
178
9999999
9999999
179
180
181
9999999
9999999
182
183
184
9999999
9999999
185
9999999
9999999
9999999
186
9999999
9999999
187
9999999
9999999
6666666
188
9999999
189
9999999
9999999
190
9999999
191
192
9999999
6666666
193
194
195
196
9999999
197
9999999
9999999
9999999
9999999
198
9999999
199
200
9999999
201
202
203
204
9999999
6666666
9999999
9999999
9999999
205
206
207
208
9999999
9999999
6666666
6666666
9999999
209
9999999
210
9999999
211
212
9999999
9999999
9999999
213
9999999
9999999
9999999
214
215
216
217
218
9999999
9999999
9999999
9999999
9999999
219
220
221
222
223
224
225
9999999
226
227
228
229
230
231
9999999
232
233
9999999
234
235
9999999
9999999
6666666
6666666
9999999
236
237
9999999
238
239
9999999
240
9999999
241
9999999
242
243
9999999
244
9999999
245
9999999
246
9999999
9999999
9999999
247
9999999
248
249
9999999
250
9999999
9999999
9999999
251
9999999
9999999
252
9999999
253
254
9999999
255
9999999
9999999
9999999
9999999
9999999
256
257
9999999
258
259
260
261
9999999
9999999
262
9999999
9999999
263
264
265
9999999
9999999
6666666
266
9999999
9999999
267
9999999
268
269
9999999
270
271
272
273
6666666
9999999
9999999
274
9999999
9999999
9999999
9999999
275
276
277
278
279
9999999
9999999
280
9999999
281
9999999
6666666
282
283
9999999
9999999
9999999
284
6666666
9999999
285
286
9999999
9999999
9999999
9999999
9999999
287
9999999
9999999
288
9999999
9999999
9999999
289
290
291
292
9999999
9999999
6666666
9999999
9999999
9999999
293
9999999
9999999
294
295
6666666
9999999
9999999
6666666
296
9999999
9999999
297
6666666
9999999
6666666
298
299
9999999
300
301
302
9999999
9999999
9999999
303
9999999
9999999
9999999
304
305
306
9999999
307
9999999
9999999
9999999
308
309
9999999
9999999
310
9999999
9999999
311
312
313
9999999
314
315
316
9999999
9999999
9999999
9999999
9999999
9999999
317
318
319
9999999
9999999
9999999
9999999
320
321
9999999
9999999
9999999
9999999
322
9999999
9999999
9999999
323
9999999
9999999
324
325
9999999
326
327
9999999
9999999
9999999
9999999
9999999
9999999
9999999
328
6666666
9999999
9999999
9999999
329
330
9999999
331
9999999
9999999
332
333
9999999
334
335
336
9999999
9999999
9999999
9999999
337
9999999
338
339
9999999
340
341
342
9999999
9999999
9999999
9999999
6666666
343
9999999
9999999
344
9999999
9999999
9999999
345
346
9999999
9999999
9999999
347
9999999
9999999
9999999
348
9999999
9999999
349
350
9999999
351
352
353
354
9999999
9999999
355
9999999
356
357
358
359
9999999
9999999
9999999
9999999
360
9999999
9999999
9999999
361
9999999
9999999
9999999
9999999
362
9999999
9999999
363
364
6666666
9999999
365
9999999
366
9999999
9999999
367
9999999
368
9999999
369
9999999
9999999
370
371
372
373
9999999
374
9999999
9999999
6666666
9999999
375
376
6666666
9999999
377
378
379
380
381
382
383
9999999
9999999
6666666
9999999
9999999
384
9999999
385
386
387
388
389
9999999
9999999
9999999
9999999
9999999
390
391
9999999
392
393
9999999
9999999
9999999
9999999
394
9999999
9999999
9999999
395
396
9999999
397
398
399
400
401
402
403
6666666
6666666
404
405
406
407
9999999
9999999
9999999
408
409
410
411
412
413
414
415
9999999
416
417
418
9999999
9999999
9999999
419
9999999
420
9999999
9999999
9999999
9999999
9999999
6666666
9999999
421
9999999
422
6666666
9999999
9999999
9999999
9999999
9999999
423
9999999
9999999
9999999
9999999
9999999
424
9999999
6666666
9999999
425
9999999
9999999
9999999
426
6666666
427
9999999
428
429
430
9999999
431
9999999
9999999
9999999
432
433
9999999
434
435
9999999
9999999
436
9999999
9999999
437
9999999
9999999
438
439
9999999
9999999
440
441
442
9999999
443
444
9999999
445
446
9999999
9999999
9999999
447
448
9999999
449
450
9999999
451
9999999
9999999
6666666
9999999
452
6666666
453
454
9999999
455
9999999
456
9999999
9999999
457
9999999
9999999
458
9999999
459
9999999
9999999
9999999
460
461
9999999
9999999
462
463
9999999
9999999
9999999
9999999
464
465
466
467
9999999
9999999
468
9999999
469
9999999
9999999
9999999
470
471
9999999
9999999
472
9999999
9999999
473
9999999
9999999
9999999
9999999
474
9999999
9999999
475
9999999
476
9999999
9999999
9999999
9999999
9999999
477
9999999
478
6666666
479
480
9999999
9999999
481
9999999
482
483
9999999
484
9999999
9999999
9999999
9999999
485
9999999
9999999
486
6666666
487
9999999
488
9999999
9999999
9999999
9999999
489
490
9999999
491
9999999
6666666
492
493
494
495
496
9999999
9999999
497
498
9999999
499
9999999
500
9999999
501
502
9999999
9999999
503
9999999
504
505
6666666
506
9999999
507
9999999
9999999
9999999
9999999
9999999
9999999
508
9999999
9999999
509
9999999
6666666
510
9999999
9999999
9999999
9999999
511
512
513
514
9999999
9999999
9999999
515
9999999
516
517
9999999
518
519
520
9999999
9999999
9999999
9999999
9999999
9999999
521
522
9999999
9999999
9999999
523
524
9999999
525
9999999
526
6666666
9999999
9999999
9999999
527
528
9999999
6666666
9999999
529
530
531
9999999
9999999
532
533
534
535
536
9999999
9999999
537
538
9999999
539
9999999
540
9999999
9999999
9999999
9999999
541
9999999
542
9999999
9999999
9999999
543
9999999
9999999
544
545
546
9999999
547
548
549
550
551
9999999
552
9999999
553
554
555
9999999
9999999
556
9999999
557
9999999
9999999
558
9999999
559
9999999
560
561
9999999
562
9999999
563
564
565
9999999
9999999
566
567
9999999
568
9999999
569
9999999
9999999
9999999
570
9999999
571
9999999
9999999
572
9999999
573
9999999
9999999
574
575
9999999
576
577
6666666
9999999
9999999
578
9999999
579
580
581
9999999
582
9999999
583
584
9999999
9999999
585
9999999
586
9999999
587
9999999
9999999
9999999
588
9999999
9999999
589
9999999
9999999
9999999
9999999
9999999
590
591
9999999
592
593
9999999
9999999
9999999
9999999
594
595
9999999
6666666
9999999
9999999
596
9999999
597
9999999
9999999
598
9999999
9999999
9999999
599
9999999
9999999
9999999
600
9999999
6666666
9999999
601
602
9999999
603
9999999
9999999
9999999
9999999
9999999
604
6666666
605
9999999
9999999
606
9999999
607
608
9999999
609
610
9999999
611
612
9999999
9999999
9999999
9999999
9999999
9999999
613
614
615
9999999
616
9999999
617
618
619
6666666
9999999
620
9999999
621
9999999
9999999
9999999
9999999
9999999
622
9999999
6666666
9999999
9999999
623
9999999
9999999
624
9999999
9999999
9999999
9999999
625
626
9999999
627
9999999
9999999
9999999
9999999
9999999
628
9999999
629
9999999
9999999
630
631
632
633
634
9999999
9999999
9999999
9999999
9999999
635
636
9999999
637
9999999
9999999
9999999
638
9999999
639
9999999
9999999
640
9999999
641
9999999
642
643
9999999
644
645
9999999
646
9999999
647
9999999
9999999
648
649
650
9999999
651
9999999
652
9999999
9999999
653
9999999
9999999
654
9999999
655
9999999
9999999
9999999
656
657
9999999
9999999
658
659
660
661
6666666
9999999
9999999
9999999
6666666
662
663
9999999
664
665
666
667
668
669
6666666
9999999
9999999
670
671
9999999
9999999
672
673
9999999
674
9999999
9999999
675
9999999
676
9999999
9999999
9999999
677
678
679
680
681
9999999
682
6666666
9999999
9999999
9999999
683
684
685
686
9999999
9999999
9999999
9999999
687
688
689
690
691
9999999
9999999
9999999
9999999
692
9999999
9999999
9999999
693
9999999
694
9999999
695
696
9999999
697
698
9999999
9999999
9999999
9999999
9999999
699
700
9999999
9999999
9999999
9999999
701
9999999
702
703
9999999
9999999
6666666
9999999
9999999
9999999
704
9999999
705
706
9999999
9999999
707
9999999
9999999
9999999
708
9999999
9999999
9999999
9999999
9999999
709
9999999
9999999
710
6666666
6666666
9999999
9999999
711
712
713
714
715
9999999
9999999
716
717
9999999
9999999
718
9999999
6666666
9999999
9999999
719
720
721
9999999
722
9999999
9999999
723
724
725
9999999
6666666
726
9999999
9999999
6666666
9999999
727
728
729
730
9999999
731
9999999
732
9999999
9999999
733
734
9999999
9999999
735
9999999
736
9999999
9999999
737
738
9999999
739
740
741
742
743
744
745
9999999
746
747
9999999
9999999
748
749
6666666
750
6666666
9999999
9999999
9999999
9999999
751
9999999
752
753
9999999
6666666
754
9999999
6666666
755
9999999
9999999
756
757
9999999
758
9999999
759
760
9999999
9999999
9999999
761
762
9999999
9999999
9999999
763
764
765
9999999
9999999
9999999
766
767
9999999
768
9999999
769
770
9999999
9999999
9999999
771
772
9999999
773
774
9999999
6666666
9999999
9999999
9999999
775
9999999
9999999
776
9999999
9999999
777
778
779
6666666
780
9999999
9999999
9999999
781
782
783
784
9999999
9999999
785
9999999
9999999
9999999
9999999
9999999
786
9999999
787
788
9999999
789
9999999
9999999
790
791
9999999
792
9999999
793
9999999
9999999
794
9999999
9999999
9999999
9999999
9999999
6666666
6666666
795
796
6666666
797
798
799
800
801
802
9999999
803
804
805
806
807
9999999
808
9999999
9999999
9999999
6666666
9999999
9999999
9999999
9999999
809
810
9999999
811
812
813
9999999
814
815
9999999
9999999
9999999
9999999
9999999
816
9999999
9999999
817
818
819
9999999
820
821
822
9999999
823
9999999
824
9999999
9999999
9999999
9999999
9999999
9999999
825
9999999
9999999
826
9999999
9999999
827
828
829
9999999
9999999
830
9999999
831
9999999
9999999
9999999
9999999
9999999
832
833
9999999
9999999
9999999
834
9999999
835
836
9999999
837
838
9999999
839
840
9999999
9999999
841
842
9999999
843
9999999
9999999
9999999
9999999
844
6666666
9999999
9999999
6666666
9999999
845
846
9999999
9999999
9999999
9999999
9999999
847
9999999
9999999
9999999
848
9999999
9999999
849
850
851
9999999
9999999
9999999
852
6666666
9999999
9999999
9999999
9999999
9999999
9999999
853
854
855
9999999
856
9999999
9999999
6666666
9999999
9999999
857
9999999
9999999
9999999
9999999
9999999
858
859
860
9999999
861
862
9999999
863
864
9999999
865
9999999
9999999
866
9999999
9999999
867
9999999
9999999
9999999
9999999
868
869
870
9999999
9999999
871
872
873
9999999
9999999
9999999
6666666
874
9999999
875
9999999
876
9999999
877
878
879
880
881
882
9999999
9999999
883
9999999
9999999
884
885
9999999
9999999
9999999
886
887
888
889
9999999
9999999
890
9999999
891
9999999
892
893
9999999
894
9999999
9999999
895
896
9999999
897
9999999
898
9999999
9999999
9999999
9999999
899
9999999
9999999
9999999
900
9999999
9999999
901
9999999
9999999
9999999
9999999
902
903
904
6666666
905
9999999
906
9999999
907
9999999
908
909
9999999
9999999
9999999
9999999
910
911
912
9999999
9999999
913
9999999
9999999
914
915
9999999
916
9999999
9999999
9999999
9999999
9999999
9999999
9999999
917
918
919
920
921
922
923
9999999
9999999
9999999
924
9999999
9999999
925
9999999
926
927
9999999
928
929
930
931
932
9999999
933
9999999
934
935
9999999
936
937
9999999
9999999
938
939
940
9999999
941
942
9999999
9999999
943
9999999
944
9999999
945
9999999
946
9999999
947
9999999
948
949
6666666
9999999
950
951
9999999
952
953
9999999
954
9999999
955
9999999
9999999
956
9999999
9999999
9999999
957
9999999
958
9999999
9999999
9999999
959
9999999
9999999
9999999
960
9999999
961
962
9999999
9999999
963
9999999
9999999
964
9999999
9999999
965
9999999
9999999
9999999
9999999
9999999
9999999
9999999
966
967
9999999
968
9999999
9999999
9999999
9999999
969
970
971
972
973
974
6666666
9999999
9999999
975
9999999
976
9999999
977
9999999
978
9999999
979
9999999
980
9999999
981
9999999
982
983
984
9999999
985
986
6666666
9999999
9999999
987
9999999
988
6666666
989
990
991
9999999
992
9999999
993
994
9999999
995
996
9999999
997
9999999
9999999
9999999
9999999
9999999
998
9999999
999
1000
9999999
9999999
1001
9999999
9999999
9999999
1002
1003
9999999
9999999
1004
9999999
9999999
9999999
9999999
1005
1006
1007
9999999
1008
9999999
9999999
9999999
1009
9999999
9999999
1010
9999999
1011
1012
1013
9999999
1014
1015
9999999
1016
1017
1018
6666666
9999999
9999999
9999999
1019
1020
9999999
9999999
1021
1022
1023
9999999
9999999
9999999
1024
1025
9999999
1026
9999999
9999999
1027
9999999
1028
9999999
9999999
9999999
1029
9999999
1030
1031
1032
6666666
9999999
1033
9999999
9999999
1034
1035
9999999
9999999
9999999
9999999
1036
9999999
1037
1038
6666666
1039
9999999
1040
9999999
9999999
9999999
9999999
1041
9999999
1042
9999999
9999999
9999999
9999999
1043
9999999
1044
9999999
9999999
6666666
9999999
9999999
1045
1046
9999999
1047
6666666
1048
9999999
1049
9999999
9999999
1050
1051
9999999
9999999
1052
9999999
1053
9999999
1054
1055
1056
9999999
1057
1058
9999999
9999999
9999999
1059
1060
9999999
9999999
9999999
1061
1062
1063
1064
1065
1066
1067
1068
9999999
1069
1070
9999999
9999999
1071
1072
9999999
9999999
9999999
1073
1074
1075
9999999
9999999
1076
9999999
1077
9999999
1078
9999999
1079
9999999
1080
1081
1082
1083
9999999
9999999
6666666
1084
1085
9999999
9999999
6666666
1086
9999999
9999999
1087
1088
1089
1090
9999999
9999999
9999999
1091
9999999
9999999
9999999
9999999
1092
1093
1094
1095
9999999
9999999
9999999
9999999
9999999
9999999
9999999
9999999
6666666
1096
1097
1098
1099
1100
9999999
9999999
1101
1102
1103
9999999
1104
9999999
9999999
9999999
1105
9999999
9999999
1106
1107
9999999
1108
1109
9999999
9999999
1110
9999999
9999999
9999999
1111
1112
1113
1114
9999999
9999999
9999999
9999999
1115
1116
1117
6666666
1118
6666666
9999999
9999999
9999999
1119
1120
9999999
1121
9999999
9999999
1122
9999999
6666666
1123
6666666
1124
6666666
9999999
1125
9999999
9999999
9999999
6666666
9999999
9999999
1126
1127
9999999
1128
1129
1130
9999999
9999999
1131
9999999
1132
1133
1134
1135
9999999
9999999
1136
9999999
1137
9999999
9999999
1138
1139
9999999
1140
9999999
9999999
1141
9999999
6666666
1142
1143
1144
1145
1146
1147
1148
1149
9999999
9999999
9999999
1150
9999999
1151
1152
9999999
9999999
1153
9999999
9999999
9999999
9999999
1154
9999999
1155
9999999
9999999
9999999
9999999
1156
9999999
1157
1158
9999999
9999999
9999999
1159
1160
9999999
1161
1162
1163
9999999
9999999
9999999
1164
9999999
9999999
9999999
9999999
9999999
1165
1166
6666666
1167
1168
1169
9999999
9999999
1170
9999999
1171
9999999
1172
1173
9999999
1174
9999999
9999999
1175
9999999
9999999
1176
9999999
9999999
9999999
9999999
1177
9999999
9999999
1178
1179
1180
9999999
6666666
9999999
1181
9999999
1182
1183
1184
1185
1186
1187
9999999
9999999
9999999
6666666
1188
1189
1190
9999999
9999999
9999999
9999999
9999999
9999999
1191
1192
9999999
9999999
9999999
1193
9999999
9999999
9999999
1194
1195
1196
1197
1198
9999999
9999999
9999999
1199
1200
9999999
1201
1202
9999999
1203
1204
1205
1206
9999999
9999999
1207
1208
1209
9999999
9999999
1210
1211
1212
9999999
1213
9999999
1214
1215
9999999
9999999
1216
9999999
9999999
6666666
9999999
9999999
9999999
9999999
1217
9999999
9999999
9999999
9999999
1218
9999999
9999999
1219
1220
9999999
1221
1222
9999999
9999999
9999999
9999999
9999999
1223
1224
9999999
9999999
1225
1226
9999999
1227
1228
9999999
1229
9999999
9999999
1230
1231
9999999
9999999
9999999
9999999
1232
1233
9999999
9999999
9999999
9999999
1234
9999999
1235
9999999
9999999
9999999
1236
1237
9999999
9999999
9999999
1238
9999999
1239
9999999
9999999
1240
9999999
1241
9999999
6666666
9999999
1242
9999999
9999999
9999999
9999999
9999999
9999999
1243
1244
9999999
9999999
1245
6666666
1246
1247
1248
9999999
1249
9999999
1250
9999999
9999999
1251
9999999
1252
1253
9999999
9999999
9999999
9999999
1254
1255
9999999
1256
9999999
1257
1258
9999999
1259
1260
1261
9999999
1262
9999999
9999999
1263
9999999
1264
9999999
9999999
9999999
1265
1266
9999999
1267
1268
1269
9999999
1270
9999999
9999999
9999999
1271
9999999
1272
9999999
1273
9999999
1274
1275
1276
9999999
9999999
1277
9999999
9999999
9999999
1278
1279
1280
9999999
1281
1282
9999999
1283
1284
9999999
9999999
1285
9999999
1286
9999999
9999999
9999999
9999999
1287
1288
1289
9999999
9999999
1290
6666666
9999999
9999999
1291
1292
1293
1294
9999999
1295
9999999
1296
9999999
9999999
6666666
1297
9999999
1298
1299
9999999
1300
6666666
9999999
9999999
1301
9999999
9999999
6666666
9999999
9999999
9999999
1302
1303
9999999
9999999
9999999
9999999
9999999
1304
1305
9999999
1306
9999999
1307
1308
9999999
1309
9999999
1310
1311
1312
9999999
9999999
1313
9999999
1314
1315
6666666
9999999
9999999
1316
1317
1318
6666666
1319
9999999
1320
9999999
9999999
1321
1322
1323
9999999
1324
1325
1326
6666666
1327
9999999
1328
9999999
1329
9999999
1330
1331
6666666
9999999
9999999
1332
1333
9999999
9999999
1334
1335
1336
1337
1338
1339
9999999
1340
1341
9999999
1342
1343
1344
1345
9999999
9999999
9999999
1346
1347
1348
1349
9999999
9999999
1350
1351
1352
9999999
9999999
1353
9999999
9999999
9999999
9999999
1354
9999999
1355
1356
1357
1358
1359
1360
1361
9999999
1362
1363
9999999
1364
1365
9999999
1366
1367
1368
9999999
6666666
9999999
9999999
9999999
1369
9999999
1370
9999999
6666666
6666666
9999999
9999999
1371
1372
9999999
1373
1374
1375
1376
9999999
9999999
1377
1378
9999999
1379
1380
1381
1382
9999999
9999999
9999999
6666666
1383
9999999
9999999
9999999
9999999
1384
1385
1386
9999999
9999999
1387
9999999
9999999
9999999
1388
1389
9999999
9999999
9999999
1390
1391
1392
1393
9999999
1394
9999999
1395
1396
1397
1398
9999999
1399
1400
1401
1402
9999999
9999999
1403
9999999
9999999
9999999
6666666
6666666
9999999
9999999
9999999
1404
1405
1406
1407
1408
6666666
1409
9999999
9999999
1410
1411
1412
1413
9999999
1414
1415
1416
9999999
1417
1418
9999999
9999999
9999999
1419
9999999
1420
9999999
6666666
1421
1422
1423
1424
9999999
6666666
1425
1426
1427
9999999
1428
1429
1430
1431
9999999
9999999
1432
1433
1434
1435
9999999
1436
1437
9999999
1438
6666666
9999999
9999999
9999999
1439
1440
1441
1442
9999999
9999999
9999999
9999999
1443
9999999
9999999
6666666
1444
1445
1446
9999999
9999999
1447
9999999
9999999
1448
9999999
9999999
9999999
9999999
9999999
9999999
1449
9999999
1450
1451
1452
1453
9999999
1454
1455
9999999
9999999